Formula,Tc,Materials_family
Sr4Mg1Ti1Fe2As2O6,6,iron-based
Nb0.71Ge0.29,6,others
Hg1Pb2.3,6,others
Pb0.488Na0.025In0.488,6,others
La1.875Ba0.1Sr0.025Cu1O4,6,cuprate
La2.9706Gd0.0294In1,6,heavy-Fermion
La9B3C6Br5,6,heavy-Fermion
Lu1Co0.26Ni1.87B2C1,6,heavy-Fermion
Lu5Ir4Si9.5Ge0.5,6,heavy-Fermion
Sc0.27Mg0.73B2,6,others
Mg1.4Al0.6Si1,6,others
Mg1Al1Si1,6,others
Mg1Ni2.91Cu0.09C1,6,others
Nb0.85V0.15,6,others
Nb4Co1Si1,6,others
Nd2Cu1F0.1O4,6,cuprate
Pr1Pt1.5Au0.6B2C1,6,heavy-Fermion
Pr1Pt2.1B2.4C1.2,6,heavy-Fermion
Pr1Pt2B2C1,6,heavy-Fermion
Rh0.36Se0.64,6,others
Rh0.53Se0.47,6,others
Rh1Se1.75,6,others
Sm1Fe0.92Ni0.08As1O1,6,iron-based
Eu0.8Mo6.35Sn0.24S8,6,others
Ta0.25Ti0.75,6,others
Sc1.2Th0.8C3,6,others
Y1Ba2Cu2.91Zn0.09O6.6,6,cuprate
Y1Os3B2,6,others
Y2C2Br1.5I0.5,6,others
Yb1Mo6Se8,6,others
Zr1V1Ge1,6,others
H0.7Zr2Rh1,6,others
Ce1Ru2,5.998273,heavy-Fermion
La3Al1,5.986667,heavy-Fermion
Hf0.16Ta0.84,5.98,others
Dy0.4Ho0.6Ni2B2C1,5.98,heavy-Fermion
Nb0.78Mn0.04Ga0.18,5.97,others
Lu0.007Zr0.993B12,5.97,others
Mo3Ag0.7Se4,5.96,others
Mo4Ag0.7Se5,5.96,others
La1Fe1P0.9As0.1O1,5.96,iron-based
Mg1Fe0.015Ni2.985C1,5.96,others
Ho0.84Er0.16Rh4B4,5.95,heavy-Fermion
In0.75Sn0.25,5.95,others
K2Cr3As3,5.95,others
Zr0.93Rh0.07,5.95,others
Sc4Dy1Ir4Si10,5.95,heavy-Fermion
La0.995Er0.005,5.94,others
Fe1S0.3Se0.7,5.94,iron-based
La0.987Gd0.013Sn3,5.94,heavy-Fermion
Zr2Co0.9Ni0.1,5.94,others
Mo3P1,5.936667,others
Y0.74Gd0.26Ni2B2C1,5.935,others
Ba0.7Rb0.3Ti2Sb2O1,5.93,others
Hf1D0.5V2,5.93,others
Pb0.9Na0.1,5.93,others
Yb1Pb1S1Te1,5.93,others
Sr1Fe1.88Ni0.12As2,5.92,iron-based
La0.09Ce0.91Ru2,5.91,heavy-Fermion
Dy0.5Ho0.5Ni2B2C1,5.905,others
Dy0.35Ho0.65Ni2B2C1,5.905,heavy-Fermion
Os1Al3,5.9,others
Zr0.2Nb1.8B5,5.9,others
Ca3Co4Ge13,5.9,others
W1Cs0.005O3,5.9,others
Mo3Cu0.7Se4,5.9,others
Mo6Cu1Se8,5.9,others
Tb0.225Er0.775Ni2B2C1,5.9,heavy-Fermion
Gd1Nd0.85Ce0.15Cu1O4,5.9,cuprate
Sm1Hg1Pb2,5.9,heavy-Fermion
Nb5B0.2Si2.8,5.9,others
Zr0.935Rh0.065,5.9,others
Tm1Co0.12Ni1.94B2C1,5.9,heavy-Fermion
Zr0.74V0.26,5.9,others
Ti0.1V0.9,5.89,others
Ho0.89Er0.11Rh4B4,5.883333,heavy-Fermion
Mo6Se6Te2,5.88,others
Zr2Co0.85Cu0.15,5.88,others
La0.15Ce0.85Ru2,5.872,heavy-Fermion
La0.2Th0.9Ru2,5.87,heavy-Fermion
Bi1,5.867143,others
Zr0.94Rh0.06,5.866667,others
Ba0.85K0.15Ti2Sb2O1,5.86,others
V0.75Ge0.2Sb0.05,5.86,others
Dy0.6Ho0.4Ni2B2C1,5.855,heavy-Fermion
Ba8Al2Si44,5.85,others
Hg1Pb2.1,5.85,others
Re0.67Mo0.33,5.845,others
Ce1Fe1P0.53As0.47O0.95F0.05,5.84,iron-based
Tl1Mo3Te3,5.84,others
Sc0.1Lu4.9Ir4Si10,5.835,heavy-Fermion
H0.033V3Ge1,5.83,others
Hf0.14Re0.86,5.83,others
Dy0.3Ho0.7Ni2B2C1,5.83,heavy-Fermion
Mo6S0.3Se7.7,5.83,others
Zr2Co0.8Ni0.2,5.83,others
Ce0.8Pr0.2Ru2,5.82,heavy-Fermion
La3Ga1,5.82,heavy-Fermion
Ir1Pt1Nb1Mo3,5.82,others
Hf1Os1P1,5.815,others
Ca1Al2Si1,5.8,others
Be5Ga1,5.8,others
Bi1Cu0.9S1O1,5.8,others
Re0.185Mo0.815Co0.002,5.8,others
Ta4Ga1Se8,5.8,others
H0.005V3Ge1,5.8,others
Hg1Pb2,5.8,others
K0.4Mo1S2,5.8,others
Lu5Ir4Si9.8Ge0.2,5.8,heavy-Fermion
Ir19Mg9.3B16.7,5.8,others
Hf0.06Mo1.94B1C1,5.8,others
Mo5B2Si1,5.8,others
Mo8P5,5.8,others
Nd0.65La1.2Ce0.15Cu1O4,5.8,cuprate
Tl0.4Pb0.6,5.8,others
Zr1Rh0.005,5.8,others
Ru0.465V0.535,5.8,others
Sm1Fe0.825Co0.175As1O1,5.8,iron-based
W5B2Si1,5.8,others
Y0.8La0.2B6,5.8,others
Y1Pt1.5Au0.6B2.4C1.2,5.8,others
Y2C2Br1.6I0.4,5.8,others
Y3Os8B6,5.8,others
Ag1Sn1S0.2Se1.8,5.79,others
Zr2Co0.95Ga0.05,5.79,others
Pt2.1Sr1Pd0.9P1,5.78,others
Dy0.6Tm0.4Ni2B2C1,5.77,heavy-Fermion
Lu5Ir3.1Rh0.9Si10,5.77,heavy-Fermion
Ta1Re3,5.765,others
Nb0.8V0.2,5.76,others
Zr1P1.5Se0.5,5.76,others
Ba8Al3Si43,5.75,others
Ca3Co4Sn13,5.75,others
Ce0.05Pr0.95Pt4Ge12,5.75,heavy-Fermion
W0.7Tc0.3,5.75,others
Bi3Ba1,5.745,others
La0.1Bi1K0.9O3,5.74,others
Lu5Ir3.12Rh0.88Si10,5.74,heavy-Fermion
Zr0.04Mo0.96B2,5.74,others
Re1Ti1O1,5.74,others
Ta0.25Re0.75,5.74,others
La2.9394Ce0.0606In1,5.72,heavy-Fermion
Lu5Ir3.44Rh0.56Si10,5.72,heavy-Fermion
Ta0.595Nb0.405,5.72,others
Zr2Co0.9Ga0.1,5.72,others
Ba0.6Rb0.4Ti2Sb2O1,5.71,others
Cu0.2Sn0.8,5.71,others
Hf0.61Ta0.39,5.71,others
Re1Ti1O5,5.71,others
Y0.7Tb0.3Ni2B2C1,5.71,others
Mo1.8B5Al0.2,5.7,others
Ga1As1,5.7,others
Mg0.31B0.69,5.7,others
Ba0.2Mo1S2,5.7,others
Be22Ga1,5.7,others
Be8Ga1,5.7,others
Bi3Sr1,5.7,others
Eu1.80375Gd0.04625Ce0.15Cu1O4,5.7,cuprate
Hg1Pb1.8,5.7,others
Sm0.5Hg1Pb2,5.7,others
Ir2Sr1,5.7,others
Lu5Ir3.4Rh0.6Si10,5.7,heavy-Fermion
Re0.62Mo0.38,5.7,others
Mo6Se5Cl3,5.7,others
Nb0.88V0.12,5.7,others
Zr0.9Ru0.1,5.7,others
Ta0.96Zr0.04,5.7,others
Y1Mn0.3Ni1.7B2C1,5.7,others
Zr2Ru3Si4,5.7,others
Y1B6,5.692857,others
Mo5.6Ru0.4Se8,5.69,others
La0.9Ca0.1Fe1P1O1,5.67,iron-based
Sc0.01V0.99,5.67,others
Lu0.015Zr0.985B12,5.67,others
Lu5Ir2.8Rh1.2Si10,5.66,heavy-Fermion
Os0.07Zr0.93,5.66,others
Th1Os0.2Ir1.8,5.66,heavy-Fermion
Pb0.25In0.75,5.65,others
Os0.38Mo0.62,5.65,others
Os0.06Zr0.94,5.65,others
Lu0.016Zr0.984B12,5.65,others
Fe0.99Cu0.01Se0.88,5.64,iron-based
Tb0.18Er0.82Ni2B2C1,5.63,heavy-Fermion
Zr0.97Rh0.03,5.626667,others
La0.9Th0.1,5.62,others
Pb3Na1,5.62,others
Ti3Sb1,5.611667,others
Tb0.05Dy0.95Ni2B2C1,5.61,heavy-Fermion
Re0.71Nb0.29,5.61,others
La3Gd0.001Al1,5.6,heavy-Fermion
Pt3Ba0.67B2,5.6,others
Ba8Al6Si40,5.6,others
Be13Ga1,5.6,others
Th1C0.78N0.22,5.6,others
Sr1.5H10C14,5.6,others
Hf0.4Nb0.6C1,5.6,others
Ca1Al0.8Ga0.2Si1,5.6,others
Ti0.3V0.6Cr0.1,5.6,others
Nb1Ga0.05Se2,5.6,others
Gd1.2Mo6Se8,5.6,others
Hf0.1Ta0.9,5.6,others
Hf1Tc2,5.6,others
Mg1Ru0.066Ni2.934C1,5.6,others
Mg2Nb1,5.6,others
Pb1Mg2,5.6,others
Re0.65Mo0.35,5.6,others
Pt0.28Mo0.72,5.6,others
Ta0.14Mo1.86B1C1,5.6,others
Sr0.2Mo1S2,5.6,others
Nb0.84S0.16,5.6,others
Nb0.92Sn0.08,5.6,others
Nd0.7Pr0.3Ba2Cu3O7,5.6,cuprate
Sm1Fe0.9Ni0.1As1O0.88F0.12,5.6,iron-based
Sr0.8Mo1S2,5.6,others
Th3Os4Ge13,5.6,heavy-Fermion
Ti1N1,5.6,others
V3Ga0.5Sn0.5,5.6,others
Zr1Ru1B0.4P0.6,5.6,others
La0.99Lu0.01,5.595,others
Mo0.21V2.79Si1,5.59,others
Bi1In2,5.584,others
La0.06Th0.94Pb3,5.58,heavy-Fermion
La2.94Ce0.06In1,5.58,heavy-Fermion
Nd0.2Sm0.8Bi1O0.7S2F0.3,5.58,others
Ti0.03V0.97,5.58,others
Nb0.85Mo0.15,5.575,others
Ag0.92Sn1.08Se2,5.57,others
Ca1Al0.9Si1.1,5.57,others
Ru0.04Ti0.576V0.384,5.57,others
Nd1Pb0.06Bi0.94O0.7S2F0.3,5.56,others
Sr1Fe1.66Co0.34As2,5.56,iron-based
Ta0.2Zr0.8,5.56,others
Zr2Co0.85Ga0.15,5.56,others
Bi0.343In0.657,5.55,others
La1.935Ca0.065Cu1O4,5.55,cuprate
Th1Pb3,5.55,heavy-Fermion
Tl0.48Pb0.52,5.54,others
Nb0.78Mn0.06Ga0.16,5.53,others
Ga1,5.527455,others
H0.938Pd1,5.523,others
Lu5Ir3.8Co0.2Si10,5.52,heavy-Fermion
Nd0.6Sm0.4Bi1O0.5S2F0.3,5.52,others
Ce0.07Pr0.93Pt4Ge12,5.52,heavy-Fermion
Rh17S15,5.52,others
Tm1Fe0.12Ni1.88B2C1,5.52,heavy-Fermion
La0.9972Eu0.0028,5.51,others
Ca2Cs1Li0.28Nb3O10,5.51,others
Nd0.4Sm0.6Bi1O0.5S2F0.5,5.51,others
Al1Ge1,5.5,others
Mo1.7V0.3B5,5.5,others
Nb0.8V0.2C0.2N0.8,5.5,others
Hf0.3Mo0.7C1,5.5,others
Ho0.4Th1.6C3,5.5,others
Mo6Cu3S8,5.5,others
Er5Os4Si15,5.5,heavy-Fermion
Nb3.28Ge0.72,5.5,others
Li1H0.3Nb1O2,5.5,others
Li1H0.5Nb1O2,5.5,others
In3Sn1,5.5,others
Ir0.1Zr0.9,5.5,others
Ir0.287Ti0.573O0.14,5.5,others
Ir0.287Ti0.578O0.14,5.5,others
Y0.01La0.99,5.5,others
La0.99Yb0.01,5.5,others
La1.8Sr0.2Cu0.9676Zn0.0324O4,5.5,cuprate
La1Bi1Ni1O1,5.5,others
Li0.45Nb1O2,5.5,others
Nb1N0.48,5.5,others
Nb0.25V0.5Sn0.25,5.5,others
Nb1V2Sn1,5.5,others
Bi2Pd0.5Te3,5.5,others
W1Rb0.19O3,5.5,others
Sm1H0.24Fe1P0.53As0.47O0.76,5.5,iron-based
Sr1Fe1.9Ni0.1As2,5.5,iron-based
Th0.93Zr0.07B12,5.5,heavy-Fermion
V0.65Al0.2Ge0.15,5.5,others
V0.65Al0.1Ge0.25,5.5,others
Zr0.1Ti0.4V0.5,5.5,others
Y2C2Br1.75I0.25,5.5,others
Lu2Fe3Si5,5.492222,heavy-Fermion
La0.962Tm0.038Sn3,5.49,heavy-Fermion
V0.401Cr0.349Ga0.25,5.48,others
Th1Rh0.85Si1.15,5.48,heavy-Fermion
Pt0.6Li2Pd2.4B1,5.47,others
Hf0.9Nb0.1N1,5.47,others
Ta0.6Nb0.4,5.47,others
Zr2Co1,5.47,others
H0.51Nb0.765Mo0.1Pd0.135,5.46,others
Mg1Fe0.02Ni2.98C1,5.46,others
V0.75Ge0.2Sn0.05,5.46,others
La1Fe1P1O1,5.458571,iron-based
Lu5Ir2Rh2Si10,5.45,heavy-Fermion
Mo6S0.5Se7.5,5.45,others
Zr0.333Nb0.274V0.393,5.45,others
La0.2Sm0.8Bi1O0.5S2F0.5,5.43,others
Mo5.5Ru0.5Se8,5.43,others
Ti0.01V0.99,5.42,others
Zr0.23Nb0.315V0.455,5.42,others
Ba1Rh0.042Fe1.958As2,5.41,iron-based
W0.5Ru0.5,5.41,others
Zr2Co0.8Cu0.2,5.41,others
Ca2K1Li0.34Nb3O10,5.405,others
Os4Al13,5.4,others
Ba1.5H10C14,5.4,others
Ho0.2Th1.8C3,5.4,others
Sc1.4Th0.6C3,5.4,others
Tb2.75C60,5.4,others
Ca2Al2.39Si4.61,5.4,others
V6In0.71S8,5.4,others
La0.8Th0.2Ni1C2,5.4,others
Y0.05La0.95,5.4,others
La1Pt4Ge14,5.4,heavy-Fermion
La2Sn5,5.4,heavy-Fermion
Ca2Cs1Li0.34Nb3O10,5.4,others
Pb1Mo6.3S6Se2,5.4,others
Nd1Rh6B6,5.4,heavy-Fermion
Pb1Mo6S6Se2,5.4,others
Nb0.4Ti0.45B0.03Si0.12,5.4,others
V0.55Al0.35Ge0.1,5.4,others
Yb1Bi1O0.5S2F0.5,5.4,others
Zr1Ru1B0.2P0.8,5.4,others
Hf0.08Ta0.92,5.38,others
Nd0.4Sm0.6Bi1O0.7S2F0.3,5.38,others
Os0.05Zr0.95,5.38,others
Nd1Pb0.03Bi0.97O0.7S2F0.3,5.37,others
Sc1S1.005,5.37,others
Os1Zr1P1,5.3525,others
Nd1Pb0.04Bi0.96O0.7S2F0.3,5.35,others
La1,5.343,others
Bi0.1Sn0.9,5.34,others
Zr1P1.1Se0.9,5.34,others
Zr0.333Nb0.099V0.567,5.34,others
Ba0.9Rb0.1Ti2Sb2O1,5.33,others
Ir1Mo1,5.325,others
Dy0.95Lu0.05Ni2B2C1,5.325,heavy-Fermion
Nd1Rh4B4,5.323333,heavy-Fermion
Re0.45Pt0.05Mo0.5,5.32,others
W0.15Nb0.85,5.32,others
Nd0.6Sm0.4Bi1O0.5S2F0.5,5.32,others
Ti0.564V0.376Fe0.06,5.32,others
Ta0.63Nb0.37,5.31,others
La0.99Er0.01,5.305,others
Bi0.85Ag0.15,5.3,others
Ba0.85Na0.15Fe2As2,5.3,iron-based
Ba1Fe1.838Co0.094Cu0.068As2,5.3,iron-based
Ba1Si2,5.3,others
Ba4Sr4Si46,5.3,others
Bi0.15In0.85,5.3,others
Ga0.1Ge0.9,5.3,others
V1.95Ga1,5.3,others
Nb1Ge0.22,5.3,others
La1.14Nb2Se5.14,5.3,others
La1Ir1P1,5.3,heavy-Fermion
Ca2Cs1Li0.46Nb3O10,5.3,others
Re0.1Pt0.15Mo0.75,5.3,others
Zr0.2445Nb0.498Mo0.2575,5.3,others
Nb0.55Mo0.25Si0.2,5.3,others
Th0.56Tc0.44,5.3,others
Ti0.75V0.25,5.3,others
Zr2Co0.8Ga0.2,5.29,others
La0.9974Tb0.0026,5.28,others
Ta0.17Zr0.83,5.28,others
Re3Nb1,5.27,others
La0.99Pr0.01,5.265,others
Nb1B2.03,5.26,others
Er0.45Lu0.55Ru1B2,5.26,heavy-Fermion
Fe1.13Se0.1Te0.85,5.25,iron-based
La2.706Pr0.294Tl1,5.25,heavy-Fermion
Zr0.798Mo0.202,5.25,others
Nd1Bi1O0.6S2F0.4,5.25,others
Pt4Sr1Ge12,5.25,others
Ag0.95Sn1.05Se2,5.245,others
La1Bi1S1Se1F0.5,5.24,others
Nd1Bi1O0.63S2F0.7,5.24,others
V1,5.22,others
Bi3.9Co0.1O4S3,5.215,others
Be22Tc1,5.21,others
Ca1Al1.2Si0.8,5.21,others
Nd0.6Sm0.4Bi1O0.7S2F0.3,5.21,others
Hf1Re2,5.203333,others
Pr0.015Bi0.985Ba0.47K0.53O3,5.2,others
Ba6Ca2Si46,5.2,others
Be8Zr2Nb5,5.2,others
Bi0.9Sb0.1,5.2,others
Ho0.6Th1.4C3,5.2,others
Eu1.84075Y0.00925Ce0.15Cu1O4,5.2,cuprate
Nb0.98Ge0.02,5.2,others
La0.9895Ho0.0105,5.2,others
La0.1Sm0.9Bi1O0.5S2F0.5,5.2,others
La1.85Sr0.15Cu0.985Fe0.015O4,5.2,cuprate
Lu2Ir3Si4.5Ge0.5,5.2,heavy-Fermion
Lu2C1Sn1,5.2,others
Mg4Al1Si3,5.2,others
Os2Mo1,5.2,others
Cs0.25Rb0.75Na2C60,5.2,others
Nd0.8Sm0.2Bi1O0.5S2F0.3,5.2,others
Nd1Bi1O0.71S2F0.29,5.2,others
W0.48Re0.52,5.2,others
W0.42Ru0.58,5.2,others
Tl0.72Sb0.28,5.2,others
Tl0.33Sb0.66,5.2,others
Tl7Sb2,5.2,others
Y0.45Dy0.55Ni2B2C1,5.2,heavy-Fermion
Y0.5Pr0.5Ba2Cu3O6.53,5.2,cuprate
Y3.25Dy1.75Os4Ge10,5.2,heavy-Fermion
Pt3.5Au0.5Ba1Ge12,5.19,others
Rh0.94Se2,5.19,others
Ir1Ti3,5.185,others
La0.99Ho0.01,5.18,others
Pt4Ba1Ge12,5.17,others
La0.92Tm0.08Sn3,5.17,heavy-Fermion
Mg1Fe0.025Ni2.975C1,5.17,others
Nd1Pb0.02Bi0.98O0.7S2F0.3,5.17,others
Os0.1Zr0.9,5.17,others
Ru0.46V0.54,5.16,others
V0.9982Cr0.0018,5.15,others
La0.8Th0.2,5.15,others
Li0.68Nb1O2,5.15,others
Ta0.7Nb0.3,5.15,others
Os0.5V0.5,5.15,others
Th1Os0.4Ir1.6,5.15,heavy-Fermion
Zr2Co0.7Ni0.3,5.14,others
Ba0.9K0.1Ti2Sb2O1,5.13,others
Mo0.97Fe0.03Ga4,5.13,others
Nb0.55Rh0.45,5.13,others
La0.3Sm0.7Bi1O0.5S2F0.5,5.12,others
Nd1Bi1O0.8S2F0.2,5.12,others
Ba0.85Na0.15Ti2Sb2O1,5.11,others
Ce0.7Pr0.3Ru2,5.11,heavy-Fermion
Nd0.8Sm0.2Bi1O0.5S2F0.5,5.11,others
Sr0.9K0.1Fe2As2,5.11,iron-based
Ti0.81V0.16Al0.03,5.1,others
W1.26Re0.74B1,5.1,others
Ba0.5K0.5Fe1.7Ni0.3As2,5.1,iron-based
Ba1Fe1.76Co0.24As2,5.1,iron-based
Bi2O0.4S2F0.6,5.1,others
Bi2Sr2Ca0.5Pr0.5Cu2O8.329,5.1,cuprate
Bi3O3S3,5.1,others
Re0.44Cr0.56,5.1,others
Er1Co0.075Ni1.9625B2C1,5.1,heavy-Fermion
La0.8Ge0.2,5.1,others
Hg1Sn6,5.1,others
Pb0.15In0.85,5.1,others
La3Co4In0.65Sn12.35,5.1,heavy-Fermion
Lu5Ir4Si6Ge4,5.1,heavy-Fermion
Mg0.23B2Al0.77,5.1,others
Mo2N1,5.1,others
Re1Nb1Si1,5.1,others
Au1Nb2.55V0.45,5.1,others
Pt0.3Nb3Rh0.7,5.1,others
W1Rb0.14O3,5.1,others
Tc0.75Ti0.25,5.1,others
Rh1Ti1Si1,5.1,others
Nb0.4Ti0.45Si0.15,5.1,others
V0.749Al0.094Sb0.157,5.1,others
Mo0.48V2.52Si1,5.1,others
Zr2Co0.75Ga0.25,5.1,others
Re1Mo1B1,5.09,others
Ho1Ir0.4Rh3.6B4,5.09,heavy-Fermion
Pt2Sr1As2,5.083333,others
Rh1.8Cu1.2S4,5.08,others
W0.6Re0.4,5.08,others
Ir2Ca1,5.075,others
V0.9967Cr0.0033,5.07,others
Dy0.2Lu0.8Ru1B2,5.07,heavy-Fermion
Pt3.75Au0.25Ba1Ge12,5.05,others
Bi0.1In0.9,5.05,others
Bi10.1In0.9,5.05,others
Hg0.06Sn0.94,5.05,others
Y2C2Br2,5.05,others
La2.9628Gd0.0372In1,5.04,heavy-Fermion
Os0.55V0.45,5.04,others
Sr1Ga1.1Si0.9,5.04,others
Dy1Ni2B2C1,5.033571,heavy-Fermion
V0.6768Co0.0732Ga0.25,5.03,others
In0.88Sn0.12,5.03,others
Mo6S0.7Se7.3,5.03,others
Th1Re2,5.025,heavy-Fermion
La0.24Ba0.76Fe2As2,5.02,iron-based
Ba1Ru0.8Fe1.2As2,5.02,iron-based
W1Rb0.19O3.001,5.02,others
Se1,5.016667,others
Ir4Sr3Sn13,5.016667,others
Ba0.75Na0.25Ti2Sb2O1,5.015,others
W1Rb0.23O3.05,5.01,others
Ba1Fe1.75Co0.11Zn0.14As2,5,iron-based
Ba6.62Si46,5,others
Ba8Si37Ge9,5,others
Bi2O0.5S2F0.5,5,others
Bi2Sr1.4La0.6Cu1O6.42,5,cuprate
Nb1C0.9,5,others
Hf0.9Ta0.1C1,5,others
W1Re0.06C1,5,others
Na1C2,5,others
Ca0.1La1.25Ba1.65Cu3O6.985,5,cuprate
Ca0.4Ba1.35La1.25Cu3O6.9,5,cuprate
Ce1Fe0.85Co0.15As1O1,5,iron-based
Fe0.9Co0.1Se1,5,iron-based
Fe1Se0.7Br0.3,5,iron-based
Fe1Se0.82Br0.18,5,iron-based
Fe1Se0.8Br0.2,5,iron-based
Hf1V1.7Fe0.3,5,others
Ho1Co0.014Ni1.993B2C1,5,heavy-Fermion
La0.68Eu0.2Sr0.12Cu1O4,5,cuprate
La1.65Nd0.2Ca1.15Cu2O5.99,5,cuprate
La1.7Ba0.3Cu0.99Zn0.01O4,5,cuprate
La3Ru3Co1Sn13,5,heavy-Fermion
Re0.187Nb0.061Mo0.725,5,others
Hf0.095Mo1.905B1C1,5,others
Zr0.9125Mo0.0875,5,others
Nb2C0.9S1,5,others
Nb0.6Mo0.2Si0.2,5,others
Nb0.8Mn0.05Ga0.15,5,others
Pb1Mo6Se7.55,5,others
Zr0.965Rh0.035,5,others
Zr0.95Rh0.05,5,others
Sm0.7Pr0.3Ba2Cu3O6.8,5,cuprate
Sr0.2Mo1Se2,5,others
Sr1Ga1Si1,5,others
Th3Ni5C5,5,others
Nb0.35Ti0.5Si0.15,5,others
Nb0.3Ti0.55B0.03Si0.12,5,others
Nb0.3Ti0.56Si0.14,5,others
Tl1Sr1.5Ce0.5Ca1Cu2O7,5,cuprate
Y1Pd2Sn1,4.993333,others
Zr1P1.4S0.6,4.99,others
La1.72Sr0.28Cu1O4,4.98,cuprate
La1Pt4Ge15,4.98,heavy-Fermion
Hf1P1.5S0.5,4.97,others
Zr2Co0.7Ga0.3,4.97,others
Li1Fe1P1,4.965,iron-based
La1.87Ba0.13Cu1O4,4.96,cuprate
Np1Pd5Al2,4.95,heavy-Fermion
W1Rb0.16O3,4.95,others
Sb2Te3,4.942,others
Ta0.71Nb0.92,4.94,others
La0.995Ce0.005,4.935,others
Ba1Ge2,4.93,others
La1.8Sr0.2Cu0.96Ni0.04O4,4.925,cuprate
Y0.16Ce0.84Ru2,4.92,heavy-Fermion
V0.995Cu0.005,4.92,others
H0.28Nb0.68Mo0.15Pd0.17,4.92,others
Re0.69Nb0.31,4.92,others
Pb1Mo6S2Se6,4.92,others
La0.99Nd0.01,4.915,others
Cu0.3Sn0.7,4.91,others
Zr0.93Mo0.07,4.91,others
Zr0.87Mo0.13,4.91,others
Zr2Co0.75Ni0.25,4.91,others
Ba1Mo0.056Fe1.946As2,4.9,iron-based
Bi1Sn1,4.9,others
Nb3.45Ge0.55,4.9,others
Nb3In1,4.9,others
La2.9Ce0.1Ni2B2N2.7,4.9,heavy-Fermion
Mg1Fe0.033Ni2.967C1,4.9,others
Zr0.96Nb0.04,4.9,others
Nb0.69V0.31,4.9,others
Nb1.5Mo1.5Al1,4.9,others
Nd0.8Sm0.2Bi1O0.7S2F0.3,4.9,others
Pd0.165Sb0.835,4.9,others
W0.3Re0.7,4.9,others
Ta0.0082V0.9918,4.9,others
Tb0.25Er0.75Ni2B2C1,4.9,heavy-Fermion
Nb0.3Ti0.55Si0.15,4.9,others
Bi2Se3,4.898,others
Zr2Co0.75Cu0.25,4.89,others
Ir0.45Nb0.55,4.88,others
La0.7Th0.3,4.88,others
Lu4.5Th0.5Ir4Si10,4.88,heavy-Fermion
La3Ru1,4.875,heavy-Fermion
Hf1H1V2,4.87,others
La1.8Nd0.2Cu0.99Zn0.01O4.0631,4.87,cuprate
Nb1.05Se2,4.86,others
Pr0.95Sr0.05Fe1As1O1,4.86,iron-based
Th1Ir1.8Ru0.2,4.86,heavy-Fermion
Nb2Cu0.67C1S2,4.85,others
La0.992Fe0.008,4.85,others
Nd1Pb0.01Bi0.99O0.7S2F0.3,4.85,others
Pd0.074Ti0.926,4.85,others
Mo3Sn0.7Se4,4.85,others
Zr1P1.25S0.75,4.85,others
Bi4O4S3,4.846,others
Gd0.2Lu0.8Ru1B2,4.84,heavy-Fermion
W0.6Ru0.4,4.835,others
Nb0.9Cr0.1,4.83,others
Sc0.06Lu1.94Fe3Si5,4.83,heavy-Fermion
Nd1Pb0.1Bi0.9O0.7S2F0.3,4.83,others
V0.995Al0.005,4.82,others
H0.46Nb0.72Mo0.1Pd0.18,4.82,others
Pt1.8Sr1Pd1.2P1,4.82,others
La2.85Pr0.15Se4,4.81,others
Na0.346H2.6Co1O3.3,4.81,others
Sc5Co4Si10,4.81,others
La1C13,4.8,others
Hf0.5Nb0.5C1,4.8,others
Ta0.4Ti0.6C1,4.8,others
V0.99Cr0.01,4.8,others
Re3Cr2B1,4.8,others
Ho1Co0.02Ni1.99B2C1,4.8,heavy-Fermion
La0.9Ce0.1Ru4P12,4.8,heavy-Fermion
La3Ru1Pd3Ge13,4.8,heavy-Fermion
Lu1Co0.3Ni1.85B2C1,4.8,heavy-Fermion
Lu5Ir1.2Rh2.8Si10,4.8,heavy-Fermion
Ir19Mg10.5B17.1,4.8,others
Ba6Na0.2Si46,4.8,others
Nb0.8Ru0.2,4.8,others
Re1Nb4.4,4.8,others
Nb0.7Mo0.1Si0.2,4.8,others
Pb0.35In0.3Sn0.35Te1,4.8,others
Pb1.14Nb3Se7.14,4.8,others
Zr0.85Pd0.15,4.8,others
Rb2Cr3As3,4.8,others
Nb0.3Ti0.54Si0.16,4.8,others
Nb0.25Ti0.6Si0.15,4.8,others
Y3Dy2Os4Ge10,4.8,heavy-Fermion
Ca1Al0.7Ga0.3Si1,4.78,others
V0.9919Cr0.0081,4.78,others
Ga1Sb1,4.78,others
Nd1Bi1O0.7S2F0.7,4.78,others
Lu0.074Zr0.926B12,4.78,others
La0.2Ce0.8Ru2,4.77,heavy-Fermion
Y0.6La2.4S4,4.77,others
Lu0.065Zr0.935B12,4.77,others
Nd0.13Ba0.87Fe2As2,4.76,iron-based
Tb0.1Lu0.9Ru1B2,4.76,heavy-Fermion
Ta0.86Nb0.14,4.76,others
Re3B1,4.75,others
Bi2Cs1,4.75,others
Ir1.05Nb0.95,4.75,others
V0.995Si0.005,4.75,others
Sr1Al1Si1,4.75,others
Sr1Ga1.2Si0.8,4.75,others
Ce1Ru1.99Co0.01,4.74,heavy-Fermion
V0.99Cu0.01,4.74,others
Zr0.9314Mo0.0686,4.74,others
Pd0.18Ti0.82,4.73,others
Sr1Ga0.9Si1.1,4.73,others
La0.1Th0.9Ru2,4.73,heavy-Fermion
Mg1Ru0.1Ni2.9C1,4.72,others
Y1Pb3,4.72,others
Ru0.06Ti0.564V0.376,4.72,others
Th1Ir3,4.71,heavy-Fermion
Ca2Cs1Li0.62Nb3O10,4.71,others
Pd0.2Ti0.8,4.71,others
Th1Pt4Ge12,4.71,heavy-Fermion
V0.75Ge0.125Sb0.1249,4.71,others
Y1B12,4.7,others
Tb0.1Dy0.9Ni2B2C1,4.7,heavy-Fermion
Eu1.7575Gd0.0925Ce0.15Cu1O4,4.7,cuprate
Nb0.05Ti0.87Fe0.08,4.7,others
Ir1Ge1,4.7,others
Ir0.93Te2,4.7,others
La1.75Sr0.25Cu0.97Ni0.03O4,4.7,cuprate
La3Ir2Ge2,4.7,heavy-Fermion
Lu5Ir4Si9.9Ge0.1,4.7,heavy-Fermion
Na0.25H2.6Co1O3.3,4.7,others
Ta1Na0.33S2,4.7,others
Na0.35D1.4Co1O2,4.7,others
Na0.35H1.4Co1O2,4.7,others
Na0.35H2.77Co1O3.3,4.7,others
Nb0.8B0.04Si0.16,4.7,others
Nb0.8Si0.16Ge0.04,4.7,others
Y1Os2,4.7,others
Ti0.775V0.225,4.7,others
Nb0.3Ti0.52Si0.18,4.7,others
Re0.192V2.808Si1,4.7,others
Y1Re1B1C1,4.7,others
Y2C2Cl0.25Br1.75,4.7,others
Ag0.12In0.88,4.69,others
Ce0.97Gd0.03Ru2,4.69,heavy-Fermion
Ce0.1Nd0.9Bi1O0.5S2F0.5,4.68,others
Ho1Ru1.4Rh2.6B4,4.68,heavy-Fermion
Ir0.95Te2,4.68,others
Mo0.32Ru0.48P0.2,4.68,others
W0.2Nb0.8,4.68,others
Nb2C0.85S1,4.68,others
Ir1.15Nb0.85,4.675,others
La0.5Th0.5Sn3,4.67,others
Ta0.84Nb0.16,4.67,others
Tl0.6Pb0.4,4.67,others
H0.75Nb0.85Pd0.15,4.66,others
Na0.35H2.6Co1O3.3,4.66,others
V0.99Si0.01,4.66,others
Nd1Bi1O0.5S2F0.5,4.656667,others
Ag1Sn1Se2,4.655,others
Lu1Os3B2,4.655,heavy-Fermion
La0.82Al0.18,4.65,others
Bi0.05In0.95,4.65,others
La0.9993Ce0.0007,4.65,others
V0.6508Fe0.0992Ga0.25,4.65,others
Ta0.83Nb0.17,4.65,others
Nd0.8Sm0.2Bi1O0.3S2F0.7,4.65,others
La0.98Lu0.02,4.643,others
Dy1Ir2Rh2B4,4.64,heavy-Fermion
La0.933Gd0.067Sn3,4.64,heavy-Fermion
Ta0.8Nb0.2,4.64,others
Nd1Bi1O0.7S2F0.3,4.64,others
Pd0.05Ti0.95,4.64,others
Zr0.8Mo0.2,4.64,others
Ta1Rh1P1,4.635,others
Er1Fe0.08Ni1.92B2C1,4.63,heavy-Fermion
Y1Si3,4.63,others
Pt0.185Mo0.815,4.62,others
Ta0.1375Nb0.4125Rh0.45,4.615,others
Li0.98Fe1.02As1,4.61,iron-based
Ce0.085Pr0.915Pt4Ge12,4.61,heavy-Fermion
Au0.167Pd0.166Te0.667,4.6,others
Ba1Fe1.66Co0.22Zn0.12As2,4.6,iron-based
Bi2Ba1Ti2O1,4.6,others
Er1Th1C3,4.6,others
Ca1Al1.4Si0.6,4.6,others
La3Co4In1.3Sn11.7,4.6,heavy-Fermion
Lu2Ir2.97Rh0.03Si5,4.6,heavy-Fermion
Lu2Ir3Si4.25Ge0.75,4.6,heavy-Fermion
Ta0.3Mo1.7B1C1,4.6,others
Au1Nb2.49V0.51,4.6,others
Au0.3Nb3Rh0.7,4.6,others
Sc1Os2,4.6,others
Zr1P0.95,4.6,others
Pb3Zr5,4.6,others
W0.75Re0.25,4.6,others
Nb0.15Ti0.7Si0.15,4.6,others
Ta0.1Ti0.4V0.5,4.6,others
Y0.5Pr0.5Ba2Cu3O6.61,4.6,cuprate
Y0.65Tb0.35Ni2B2C1,4.6,others
Zr0.243Nb0.272V0.485,4.6,others
Nb1B2,4.5975,others
Ir0.0005Na0.75H2.6Co0.9995O3.3,4.59,others
La3Gd0.003Al1,4.58,heavy-Fermion