Formula,Tc,Materials_family
La1Fe1P0.6As0.4O0.9F0.1,21.27,iron-based
Nd1.85Ce0.15Cu1O4,21.2325,cuprate
Bi1Ba0.57K0.43O3,21.2,others
Ca1Fe1.922Co0.078As2,21.2,iron-based
La1.865Ce0.135Cu1O4,21.2,cuprate
La1Fe1P0.5As0.5O0.95F0.05,21.2,others
Nd1.65La0.2Ce0.15Cu1O4,21.2,cuprate
Pr1.85Ce0.15Cu0.97V0.03O3.98,21.2,cuprate
La1.77Sr0.23Cu1O4,21.15,cuprate
Na1Fe0.97Co0.03As1,21.133333,iron-based
Bi1Ba0.48K0.52O2.9,21.1,others
Pt0.25Ba1Fe1.75As2,21.1,iron-based
Nd1.85Ce0.15Cu0.98Mn0.02O4,21.1,cuprate
Nd1.85Ce0.15Cu1O4.026,21.1,cuprate
Nd1.85Ce0.15Cu1O4.028,21.1,cuprate
Ba1Fe1.824Co0.176As2,21.05,iron-based
Na1Fe0.975Co0.025As1,21.05,iron-based
La1.87Sr0.13Cu0.9925Zn0.0075O4,21.02,cuprate
Ba1Ru0.75Fe1.25As2,21,iron-based
Bi2Sr1.5La0.5Cu1O6.38,21,cuprate
Ca0.6Na0.4Fe2As2,21,iron-based
Ce0.16Ca0.84Fe1As1.98Sb0.02,21,iron-based
Pr0.15Ca0.85Fe1As2,21,iron-based
Ca1.737Cu0.868Cl1.868Na0.132O2.263,21,cuprate
Cu2Ti0.25Sr2Y1.3Ce0.7O8.71,21,cuprate
Dy0.9Ca0.1Ba2Cu2.7Zn0.3O6.72,21,cuprate
Er1Ba2Cu2.64Zn0.18Fe0.18O6.95,21,cuprate
Eu1.5Ce0.5Sr2Cu2Nb1O9.955,21,cuprate
Eu1Fe1.78Co0.22As2,21,iron-based
Eu1Ir0.22Fe1.78As2,21,iron-based
Gd1Ba2Cu2.64Fe0.36O6.99,21,cuprate
La1.74Nd0.125Sr0.135Cu1O4,21,cuprate
La1.775Sr0.225Cu0.995Ni0.005O4,21,cuprate
La1.78Sr0.22Cu0.92Ni0.08O4,21,cuprate
La1.92K0.08Cu1O4,21,cuprate
La1H0.44Fe1As1O0.56,21,iron-based
Mg1B1.92F0.08,21,others
Nb0.79Al0.16Ge0.05,21,others
Nd1.75Y0.1Ce0.15Cu1O4,21,cuprate
Nd1.85Ce0.15Cu0.96Mn0.04O4,21,cuprate
Nd1.85Y0.15Cu1O4,21,cuprate
Pr1.79Ce0.15Sr0.06Cu1O3.94,21,cuprate
Pr2Ba4Cu7O14.3,21,cuprate
Ru1Sr2Gd0.82Nd0.18Cu2O8,21,cuprate
Sm0.8Pr0.2Ba2Cu3O6.65,21,cuprate
Sm1.65Gd0.2Ce0.15Cu1O3.97,21,cuprate
Sr0.2La1.8Cu0.95Ni0.05O4,21,cuprate
Sr0.2La1.8Cu0.95Ti0.05O4,21,cuprate
Sr1.4K0.6Cu1C1O5,21,cuprate
Sr2Cu1C0.94B0.06O5,21,cuprate
Tl1Sr2Ca1Cu2O6.76,21,cuprate
Y1Ba2Cu2.95Zn0.05O6.62,21,cuprate
Y1Pd4B1C0.2,21,others
Y1Sr2Cu2.65Ga0.35O6.7,21,cuprate
Y1Sr2Cu2.65Ti0.35O6.8,21,cuprate
Y1Sr2Cu2.675Ti0.325O6.6,21,cuprate
Ba1Fe1.889Co0.102Cu0.009As2,20.95,iron-based
Dy0.65Pt3Ca9.35Fe10As18,20.9,iron-based
Gd0.6Pr0.4Ba2Cu3O7,20.9,cuprate
Mg1Be0.4B1.6,20.9,others
Ba1Fe2P0.94As1.06,20.8,iron-based
Ca1Fe0.85Co0.15As1F1,20.8,iron-based
Nb3Al0.77Ge0.23,20.75,others
Pr2Ba4Cu7O14.44,20.75,cuprate
Nb0.003Al0.75Ge0.25,20.7,others
Ba1Fe1.82Co0.18As2,20.7,iron-based
Nb0.79Al0.164Ga0.057,20.7,others
Nb3Al0.71Ge0.29,20.7,others
Bi1Ba0.52K0.48O2.93,20.6,others
Bi0.1485Mo0.1815Cu2.67Sr2Y1O7.21,20.6,cuprate
Ce1Fe1P0.2As0.8O0.95F0.05,20.6,iron-based
La1.75Nd0.1Ca0.064Ba0.086Cu1O4.03,20.6,cuprate
Pr2Ba4Cu7O14.36,20.6,cuprate
Ba1Fe1.892Co0.108As2,20.5,iron-based
Pr3.15Pt3Ca6.85Fe10As18,20.5,iron-based
La1.85Sr0.15Cu0.99Ru0.01O4,20.5,cuprate
La1.9Ca0.1Cu1O4,20.5,cuprate
La0.4Sr0.6Fe2As2,20.5,iron-based
Y1Ba2Cu2.9Fe0.1O6.64,20.5,cuprate
Y1Ba2Cu2.9Ni0.1O6.61,20.5,cuprate
Nb0.75Al0.19Ge0.06,20.45,others
Bi1Ba0.59K0.41O2.96,20.4,others
Ca1Fe1.92Co0.08As2,20.4,iron-based
Nb3Al0.66Ge0.34,20.4,others
Nb3Al0.76Ge0.24,20.4,others
Nb3Al0.8Ge0.2,20.375,others
La1.91Ce0.09Cu1O4,20.35,cuprate
Nb3.8Al0.75Ge0.25,20.34,others
Nb0.6Ga0.4,20.3,others
La1.92Sr0.08Cu1O3.994,20.3,cuprate
La1H0.42Fe1As1O0.58,20.3,iron-based
Hf1Sr0.33N1Cl1,20.3,others
Y0.35Pr0.65Ba1Sr1Cu3O6.9,20.3,cuprate
Nb3.1Al0.66Ge0.22,20.29,others
Nb0.78Al0.165Ge0.055,20.29,others
Nb0.75Al0.185Ge0.065,20.26,others
Nb3Al0.75Ge0.25,20.2,others
Hf1Ba0.33N1Cl1,20.2,others
Bi1.7Pb0.3Sr1.6La0.4Cu1O6.141,20.2,cuprate
Nb0.755Ga0.245,20.2,others
Nb0.68Ga0.32,20.2,others
La1.8Pr0.2Cu1O4.0631,20.2,cuprate
Nd0.95La0.9Ce0.15Cu1O4,20.2,cuprate
Sm1.55Gd0.3Ce0.15Cu1O3.97,20.2,cuprate
Y0.4Pr0.6Sr2Cu2.85Re0.15O6.8,20.2,cuprate
La1.85Sr0.15Cu0.985Zn0.015O4,20.175,cuprate
Ba1Fe1.9Ni0.1As2,20.15,iron-based
Ba2Ti2Fe2As4O1,20.125,iron-based
La1.887Ca0.1125Cu1O4,20.1,cuprate
Na1Fe0.972Co0.028As1,20.1,iron-based
Nb0.75Al0.178Ge0.072,20.1,others
Ba1Ru0.52Fe1.48As2,20.05,iron-based
Ba1Fe1.8Co0.2As2,20.05,iron-based
Ba1Fe1.904Ni0.096As2,20.05,iron-based
Bi1Ba0.54K0.46O3,20,others
Yb0.1Ba0.9Fe2As2,20,iron-based
Ba1Fe1.83Co0.13Zn0.04As2,20,iron-based
Ba1Fe1.87Co0.11Zn0.02As2,20,iron-based
Bi2Sr1.34La0.66Cu1O6,20,cuprate
Bi2Sr1.6La0.4Cu1O6.35,20,cuprate
Bi2Sr2Y1.64Ce0.36Cu2O10.22,20,cuprate
Pr0.1Ca0.9Fe1.3As1.8O0.2,20,iron-based
Pr0.1Ca0.9Fe1As2,20,iron-based
Ca1.867Na0.133Cu1Cl2O2,20,cuprate
Ca1La1Ba1Cu2.91Zn0.09O7,20,cuprate
Nb0.75Ga0.25,20,others
Hg1Ba2Cu1O4.025,20,cuprate
Ho1Ba2Cu2.94O6.48,20,cuprate
K0.5Na0.24Fe1.52Se2,20,iron-based
K0.8Cr0.004Fe1.996Se2,20,iron-based
La1.3Ba1.5Ca0.2Cu3O6.7,20,cuprate
La1.79Sr0.21Cu0.995Zn0.005O4,20,cuprate
La1.79Sr0.21Cu0.99Zn0.01O4,20,cuprate
La1.805Sr0.195Cu0.99Zn0.01O4,20,cuprate
La1.85Ca0.082Ba0.068Cu1O4,20,cuprate
La1.85Sr0.15Cu1O3.993,20,cuprate
La1.91Ca0.09Cu1O4,20,cuprate
La1.935K0.065Cu1O4,20,cuprate
La1.9Ca0.1Cu1O3.967,20,cuprate
La1.9Sr0.1Cu0.95Li0.05O4,20,cuprate
Hf1Li0.37N1Cl1,20,others
Li1.1Fe1As1,20,iron-based
Lu0.5Pr0.5Ba1.7Sr0.3Cu3O6.92,20,cuprate
Nb0.75Al0.1875Ge0.0625,20,others
Nb3Al0.93Ge0.07,20,others
Nb3Al0.94Ge0.06,20,others
Nb3Al0.95Ge0.05,20,others
Nd1.5Ba1.5Cu3O7.14,20,cuprate
Nd1.75La0.1Ce0.15Cu1O4,20,cuprate
Nd1.8315Y0.0185Ce0.15Cu1O4,20,cuprate
Nd1.85Ce0.15Cu1O3.97,20,cuprate
Pr1.85Ce0.15Cu1O3.97,20,cuprate
Sm1La0.75Sr0.25Cu1O3.95,20,cuprate
Sr0.7Ba1.3Y1Cu2.8Al0.2O7.11,20,cuprate
Sr1.3K0.7Cu1C1O5,20,cuprate
Sr1.5K0.5Cu1C1O5,20,cuprate
Sr1Ba1Y1Cu2.8Al0.2O7.15,20,cuprate
Sr2V1Fe1As1O2.5,20,iron-based
Tl1Ba0.6Sr0.4La1Cu1O5,20,cuprate
Y0.9Ca0.1Sr2Cu2.5Fe0.5O6.9,20,cuprate
Y1Ba2Cu2.79Zn0.21O6.95,20,cuprate
Y1Ba2Cu2.82Al0.18O7,20,cuprate
Y1Ba2Cu2.919Zn0.081O6.75,20,cuprate
Y1Ba2Cu2.91Zn0.09O6.7,20,cuprate
Y1Ba2Cu2.931Zn0.069O6.6,20,cuprate
La1.85Sr0.15Cu0.975Ni0.025O4,19.98,cuprate
Ba0.5K0.5Fe1.8Co0.2As2,19.95,iron-based
Nb0.749Ga0.251,19.9,others
La1Fe0.85Zn0.15As1O0.9F0.1,19.9,iron-based
La1Fe0.9Zn0.1As1O0.9F0.1,19.9,iron-based
La1Nd0.9Ce0.1Cu1O3.974,19.9,cuprate
Nb3Al0.7Ge0.3,19.9,others
Nb3Al0.92Ge0.08,19.9,others
La1.85Sr0.15Cu0.991Fe0.009O4,19.85,cuprate
Nb0.75Al0.21Ge0.04,19.85,others
Bi1Pb1Sr1.6La0.4Cu1O6.065,19.8,cuprate
Ca0.5Na0.5Fe2As2,19.8,iron-based
La1.72Nd0.1Ba0.18Cu1O4,19.8,cuprate
La1.774Sr0.226Cu1O4,19.8,cuprate
La1.8Sr0.2Cu0.983Zn0.017O4,19.8,cuprate
La1Nd0.89Ce0.11Cu1O3.978,19.8,cuprate
Nb0.75Al0.02Ge0.05,19.8,others
Nb0.75Al0.17Ge0.08,19.8,others
Nb0.75Al0.18Ge0.07,19.8,others
Nb2.96Al0.7592Ge0.3224,19.8,others
Nb3Al0.91Ge0.09,19.8,others
Be0.05Nb3Al0.95,19.8,others
Nb3Al0.96Ge0.04,19.8,others
Nb3B0.1Al0.9,19.8,others
Be0.1Nb3Al0.9,19.8,others
Pb2Cu2La1.1O6.19,19.8,cuprate
Pr0.83La1Ce0.17Cu1O4,19.8,cuprate
Sr1Ru0.6Fe1.4As2,19.8,iron-based
Y0.9Ca0.1Ba2Cu3O6.03,19.8,cuprate
Nd1.85Ce0.15Cu0.999Ni0.001O4,19.75,cuprate
Ba0.3K0.7Fe2As2,19.7,iron-based
Ba1Ru0.7Fe1.3As2,19.7,iron-based
Ca1.84Na0.16Cu1Cl2O2,19.7,cuprate
La0.65Pt3Ca9.35Fe10As18,19.7,iron-based
La1Ru0.2Fe0.8As1O0.89F0.11,19.7,iron-based
Nb0.758Al0.174Ge0.069,19.7,others
Nb0.75Al0.16Ge0.09,19.7,others
Nb3Al0.6Ge0.4,19.7,others
Sm1.85Ce0.15Cu1O3.98,19.7,cuprate
La1.9Sr0.1Cu0.995Zn0.005O4,19.645,cuprate
Ba1Fe1.83Co0.17As2,19.6,iron-based
La1.75Sr0.25Cu1O3.921,19.6,cuprate
La1Fe0.982Zn0.018As1O0.68F0.28,19.6,iron-based
Nb3Al0.83Ge0.17,19.6,others
Nb3Al0.97Ge0.03,19.6,others
Sm1La0.8Sr0.2Cu1O3.925,19.6,cuprate
Pr1.85Ce0.15Cu1O3.98,19.533333,cuprate
Nb3Al1Ge1,19.5,others
Ba1Fe1.9Co0.1As2,19.5,iron-based
Ca0.1Ba1.65La1.25Cu3O7.01,19.5,cuprate
Gd0.15Ca0.85Fe1As2,19.5,iron-based
Pr0.61Pt3Ca9.39Fe10As18,19.5,iron-based
Ho0.32Pt3Ca9.68Fe10As18,19.5,iron-based
Ce1H1Fe0.83Co0.17As1,19.5,iron-based
La1.762Sr0.238Cu1O4,19.5,cuprate
La1.8Ca0.2Cu1O3.917,19.5,cuprate
La1H0.41Fe1As1O0.59,19.5,iron-based
Nd1.85Ce0.15Cu0.998Fe0.002O4,19.5,cuprate
Mg1B1.4C0.6,19.45,others
Nb0.75Al0.16Ga0.09,19.45,others
La1.85Sr0.15Cu0.983Zn0.017O4,19.4,cuprate
Na1Fe0.979Co0.021As1,19.4,iron-based
Pr1.86Ce0.14Cu1O4,19.35,cuprate
Sm1Fe1P0.5As0.5O0.85,19.35,others
Nd0.094Ca0.906Fe2As2,19.3,iron-based
Ce1Fe1P0.1As0.9O0.95F0.05,19.3,iron-based
Na1Fe0.981Co0.019As1,19.3,iron-based
Nb3Al0.98Ge0.02,19.3,others
Nd1.85Ce0.15Cu1O4.03,19.3,cuprate
La1.78Sr0.22Cu0.9975Zn0.0025O4,19.25,cuprate
Nb0.75Al0.22Si0.3,19.2,others
Nb3Al0.9Ga0.05As0.05,19.2,others
Ba0.2Na0.8Fe2As2,19.2,iron-based
Ca1Fe1.898Co0.102As2,19.2,iron-based
La2Cu0.98Zn0.02O4.099,19.2,cuprate
Nb0.75Al0.23Ge0.02,19.2,others
Nb3Al0.927Ga0.073,19.2,others
Nb3Al0.95Ga0.05,19.2,others
Sm1.45Gd0.4Ce0.15Cu1O3.97,19.2,cuprate
Nb3B0.05Al0.95,19.1,others
Gd0.05Sm1.8Ce0.15Cu1O4,19.1,cuprate
Nb0.75Al0.175Ga0.075,18.3,others
Nb0.75Al0.225Ga0.025,19.1,others
Nb3Al0.75Ga0.3,19.1,others
Nb3Al0.907Ga0.093,19.1,others
Nd1.35La0.5Ce0.15Cu1O4,19.1,cuprate
La1.8Sr0.2Cu0.98Zn0.02O4,19.066667,cuprate
La1Fe1P0.4As0.6O0.95F0.05,19.04,iron-based
Nb3Al0.5Ga0.5,19,others
Ba0.66K0.34Fe1.8Co0.2As2,19,iron-based
Ba0.788K0.212Fe2As2,19,iron-based
Ba1.6Sr0.4Yb0.85Ca0.15Cu3O6.36,19,cuprate
Ba1Fe1.79Co0.13Zn0.08As2,19,iron-based
Ba1Fe1.81Co0.13Zn0.06As2,19,iron-based
Bi1.95Sr1.25La0.8Cu1O4,19,cuprate
Ca1.75Na0.25Cu1Br1Cl1O2,19,cuprate
Ca1.85Na0.15Cu1Br1Cl1O2,19,cuprate
Ca1.8Na0.2Cu1Br1Cl1O2,19,cuprate
Ca1H1Fe0.83Co0.17As1,19,iron-based
Dy0.5Pr0.5Ba2Cu3O6.85,19,cuprate
La1.81Sr0.19Cu0.99Zn0.01O4,19,cuprate
La1.842Ba0.158Cu0.99Ni0.01O4,19,cuprate
La1.85Ca0.15Cu1O3.942,19,cuprate
La1.85Sr0.15Cu0.984Zn0.016O4,19,cuprate
Hf1Na0.29N1Cl1,19,others
Hf1Na0.8N1Cl1,19,others
Nb3Al0.967Ga0.033,19,others
Nb3Al0.991Ge0.009,19,others
Nd1.15La0.7Ce0.15Cu1O4,19,cuprate
Nd1.665Gd0.185Ce0.15Cu1O4,19,cuprate
Nd1.7945Y0.0555Ce0.15Cu1O4,19,cuprate
Nd2Cu1F0.3O4,19,cuprate
Pb0.5Cd0.5Sr2Tb0.5Ca0.5Cu2O7,19,cuprate
Pb0.5Cd0.5Sr2Tb0.6Ca0.4Cu2O7,19,cuprate
Pr0.85La1Ce0.15Cu1O3.95,19,cuprate
Ru1Sr2Gd1Cu1.9Li0.1O8,19,cuprate
Sm1H0.08Fe1P0.45As0.55O0.92,19,iron-based
Tm1Ba2Cu3O6.41,19,cuprate
Y0.88Ca0.12Sr2Cu2.5Fe0.5O6.89,19,cuprate
Y1Ba2Cu3O6.375,19,cuprate
Bi1Ba0.45K0.55O2.83,18.95,others
Nb3Al0.9Ge0.1,18.9,others
Ba1Pd0.086Fe1.914As2,18.9,iron-based
Ce2.84Pt3Ca7.16Fe10As18,18.9,iron-based
Nd2.35Pt3Ca7.65Fe10As18,18.9,iron-based
La0.92Sr0.08Fe1As1O1,18.9,iron-based
Pr1.85Ce0.15Cu0.995Zn0.005O4.065,18.9,cuprate
Y1Ba1.72La0.28Cu4O8,18.9,cuprate
Y1Ba2Cu2.94Zn0.06O6.65,18.9,cuprate
Pr1.85Ce0.15Cu1O4.161,18.85,cuprate
La1.87Sr0.13Cu0.99Zn0.01O4,18.83,cuprate
Na1Fe0.98Co0.02As1,18.8,iron-based
Nb3Al0.983Ga0.017,18.8,others
Sm1.35Gd0.5Ce0.15Cu1O3.97,18.8,cuprate
Sm1Fe0.94Ni0.06As1O0.88F0.12,18.8,iron-based
Y1Ba2Cu2.94Zn0.06O6.59,18.75,cuprate
Bi1Ba0.52K0.48O3,18.7,others
Bi1Ba0.65K0.35O2.99,18.7,others
Nb0.73Al0.255Si0.015,18.7,others
Nb3Al0.67Ga0.33,18.7,others
Y0.5Pr0.5Ba2Cu3O6.65,18.7,cuprate
Ba1Fe1.88Ni0.12As2,18.6,iron-based
Ba1Fe1.898Co0.102As2,18.6,iron-based
Ba1Fe1.908Ni0.092As2,18.6,iron-based
Y0.42Pt3Ca9.58Fe10As18,18.6,iron-based
V3Ga0.25Si0.75,18.6,others
Y0.05La0.95Mn0.005Fe0.995As1O0.89F0.11,18.6,iron-based
La1.85Sr0.15Cu0.988Co0.012O4,18.6,cuprate
Nb3Al0.985Si0.015,18.6,others
Nb0.75Al0.1Ga0.15,18.55,others
Nb3Al0.8Ga0.2,18.54,others
Ba1Fe1.85Co0.11Zn0.04As2,18.5,iron-based
Gd0.02Pr1.83Ce0.15Cu1O4,18.5,cuprate
Gd0.2Nd1.65Ce0.15Cu1O4,18.5,cuprate
La0.81Sm0.06Sr0.13Fe1As1O1,18.5,iron-based
Nb3Al0.956Si0.044,18.5,others
Nb3Al0.975Si0.025,18.5,others
Nb3Al0.9Ga0.1,18.5,others
Pu1Co1Ga5,18.5,heavy-Fermion
Pr1.85Ce0.15Cu0.99Zn0.01O4.065,18.41,cuprate
Nb0.725Al0.245,18.4,others
Nb3Al3,18.4,others
Ba0.1Na0.9Fe2As2,18.4,iron-based
Pr0.031Bi0.969Ba0.6K0.4O3,18.4,others
Ca1Rh0.15Fe0.85As1F1,18.4,iron-based
Li0.8H1Fe1.2O1S0.66Se0.34,18.4,others
Nb3Al0.935Si0.065,18.4,others
Nb3Al0.945Si0.055,18.4,others
Nb3Al0.964Si0.036,18.4,others
Nb3Al0.98Se0.02,18.4,others
Sr1Fe1.8Co0.2As2,18.365,iron-based
Zr0.013Nb0.75Al0.23,18.3,others
Nb0.71Sn0.29,18.3,others
Ta0.15Nb2.85Sn1,18.3,others
Nb3Al0.9In0.1,18.3,others
Nb3Ga0.05Sn0.95,18.3,others
Nb3In0.15Sn0.85,18.3,others
Nb3Ga0.09Sn0.91,18.3,others
Sm1Ir0.11Fe0.89As1O1,18.3,iron-based
Yb0.45Pr0.55Ba2Cu3O6.92,18.3,cuprate
Bi0.15Nb3Sn0.85,18.28,others
Pr1.85Ce0.15Cu0.985Zn0.015O4.065,18.28,cuprate
La1.925Sr0.075Cu1O4,18.266667,cuprate
Tl0.1Nb3Sn0.9,18.25,others
Nb0.75Al0.2Ga0.05,18.25,others
Ba1Fe1.915Ni0.085As2,18.2,iron-based
V3Ga0.5Si0.5,18.2,others
La1.822Ba0.178Cu0.99Ni0.01O4,18.2,cuprate
Nb0.72Sn0.28,18.2,others
Nb3Al0.05Sn0.95,18.2,others
Pb0.15Nb3Sn0.85,18.2,others
Tl0.15Nb3Sn0.85,18.2,others
Nb3Ga0.1Sn0.9,18.2,others
Sm1Fe0.9Zn0.1As1O0.8F0.2,18.2,iron-based
Nb3Sn0.95As0.05,18.19,others
Ce1Fe1P0.3As0.7O0.95F0.05,18.15,iron-based
Tl0.15Nb3Ga0.15Sn0.7,18.14,others
Tl0.15Bi0.15Nb3Sn0.7,18.12,others
Pb0.15Nb3Ga0.15Sn0.7,18.11,others
Bi1.5Pb0.5Sr1.5La0.5Cu1O6.074,18.1,cuprate
La1.83Sr0.17Cu0.98Mn0.02O4,18.1,cuprate
Nb0.76Sn0.74,18.1,others
Zr0.3Nb2.7Sn1,18.1,others
Zr0.15Nb2.85Sn1,18.1,others
Nb3Al0.8In0.2,18.1,others
Nb3Al0.967Se0.033,18.1,others
Nb3Zn0.1Al0.9,18.1,others
Nb3Al0.35Ga0.65,18.1,others
Nb3Al0.33Ga0.67,18.1,others
Nb3Ge0.05Sn0.95,18.1,others
Nb3Al0.1Sn0.9,18.1,others
Nb3In0.1Sn0.9,18.1,others
Nd1.85Ce0.15Cu0.996Zn0.004O4,18.1,cuprate
Nd1.85Ce0.15Cu1O4.034,18.1,cuprate
Pb2Cu2La1.1O7.42,18.1,cuprate
Sm0.716La1.084Sr0.2Cu1O4,18.1,cuprate
Bi0.15Nb3Sn0.7As0.15,18.07,others
Nb3Al0.9Sb0.1,18.06,others
Bi0.2Nb3Ga0.2Sn0.6,18.06,others
Sm1.85Ce0.15Cu1O4,18.057143,cuprate
Pb0.15Nb3Sn0.7As0.15,18.05,others
Bi0.15Nb3Ga0.15Sn0.7,18.04,others
Nb3Ga0.15Sn0.7As0.15,18.01,others
Bi0.15Nb3In0.15Sn0.7,18.01,others
Pr1.85Ce0.15Cu0.98Zn0.02O4.065,18.01,cuprate
Al1Sr2Ho0.5Ca0.5Cu2O7.05,18,cuprate
Ba0.694K0.306Fe1.826Co0.174As2,18,iron-based
Ba0.698Na0.302Fe2As2,18,iron-based
Ba0.79K0.21Fe2As2,18,iron-based
Ba1Mn0.013Fe1.857Co0.13As2,18,iron-based
Bi1.95Sr1.45Nd0.6Cu1O4,18,cuprate
Bi2Sr1.8La0.2Cu1O6.3,18,cuprate
Bi2Sr2Ca0.5Y0.5Cu2O8.36,18,cuprate
K3.3H14C22,18,others
Ca1.65Na0.35Cu1Br2O2,18,cuprate
Ca1.75Na0.25Cu1Br2O2,18,cuprate
Ca1.9K0.1Cu1Cl2O2,18,cuprate
Eu0.5K0.5Fe1.9Ni0.1As2,18,iron-based
La0.77Sm0.1Sr0.13Fe1As1O1,18,iron-based
La1.03Pr0.85Sr0.12Cu1O4,18,cuprate
La1.59Na0.41Cu1O4,18,cuprate
La1.75Nd0.1Ca0.064Ba0.086Cu1O4,18,cuprate
La1.77Sr0.23Cu0.995Zn0.005O4,18,cuprate
La1.77Sr0.23Cu0.99Ni0.01O4,18,cuprate
La1.78Sr0.22Cu0.993Zn0.007O4,18,cuprate
La1.9Er0.1Ba2Ca0.2Cu4.2O9.85,18,cuprate
La1Fe1As1O0.94F0.06,18,iron-based
Ir0.12Mg0.88B2,18,others
Mo1Sr2Sm1.5Ce1Cu2O10,18,cuprate
Nb0.747Al0.239Si0.014,18,others
Nb0.76Fe1.61S1.04Se0.96,18,iron-based
Ta0.3Nb2.7Sn1,18,others
W0.03Nb2.97Al1,18,others
Hf0.015Nb2.985Al1,18,others
Nb3Al0.952Se0.048,18,others
Nb3Al0.06Sn0.94,18,others
Nb3Al0.04Sn0.96,18,others
Nb3Ge0.1Sn0.9,18,others
Nd1.25La0.6Th0.15Cu1O4,18,cuprate
Nd1.48Gd0.37Ce0.15Cu1O4,18,cuprate
Nd1.7575Y0.0925Ce0.15Cu1O4,18,cuprate
Nd1.85Ce0.15Cu0.995Zn0.005O4,18,cuprate
Nd2Cu1F0.5O4,18,cuprate
Pr1.74Ce0.15Sr0.11Cu1O3.96,18,cuprate
Sm1Ir0.06Fe0.94As1O1,18,iron-based
Sr0.81Nd0.19Cu1O2,18,cuprate
Eu0.2Sr0.8Fe1.78Co0.22As2,18,iron-based
Y0.4Pr0.6Ba1Sr1Cu3O6.92,18,cuprate
Y0.9Ca0.1Ba2Cu2.55Co0.45O7.02,18,cuprate
Y1Ba2Cu2.95Zn0.05O6.47,18,cuprate
Nb3In0.15Sn0.7As0.15,17.99,others
Tl0.15Nb3Sn0.7As0.15,17.98,others
Nb3Sn0.85As0.15,17.98,others
Nb0.785Al0.215,17.97,others
La1.85Sr0.15Cu0.988Al0.012O4,17.9,cuprate
Nb0.75Al0.175Ge0.075,17.9,others
Nb0.75Al0.225Ge0.025,17.9,others
Nb1C0.28N0.78,17.9,others
Nb1C0.5N0.5,17.9,others
Zr0.45Nb2.55Sn1,17.9,others
Nb2.85Ti0.15Sn1,17.9,others
Nb3.05Al0.7125Ge0.19,17.9,others
Nb3Al0.08Sn0.92,17.9,others
Nb3Al0.02Sn0.98,17.9,others
Nd1.85Ce0.15Cu0.91Mn0.09O4,17.9,cuprate
Nb0.76Al0.18Ge0.06,17.88,others
Nb3Sn1,17.846,others
Pb0.2Nb3Ge0.2Sn0.6,17.84,others
Pb0.15Nb3Ge0.15Sn0.7,17.82,others
Nb3Al0.95Sb0.5,17.81,others
Ba1Rh0.192Fe1.808As2,17.8,iron-based
Nb0.85Ti0.15C0.25N0.75,17.8,others
Nb1C0.35N0.65,17.8,others
Gd0.11Sm1.74Ce0.15Cu1O4,17.8,cuprate
La1H0.21Fe1As1O0.79,17.8,iron-based
Ta0.06Nb0.69Sn0.25,17.8,others
Nb1C0.3N0.64,17.8,others
Ta0.25Nb2.75Sn1,17.8,others
Nb3B0.2Al0.8,17.8,others
Nb3Al0.94Se0.06,17.8,others
Nb3Si0.06Sn0.94,17.8,others
Nb3In0.2Sn0.8,17.8,others
Nb3Al0.09Sn0.91,17.8,others
Sm1Fe1P0.15As0.85O0.88F0.12,17.8,iron-based
Y1Ba1.9La0.1Cu3.93Zn0.07O8,17.8,cuprate
Y1Ba2Cu2.95Fe0.05O6.55,17.8,cuprate
Nb3Ge0.2Sn0.8,17.783333,others
Bi0.15Nb3Ge0.15Sn0.7,17.75,others
Ca1Fe1.888Co0.112As2,17.75,iron-based
La1Ru0.3Fe0.7As1O0.89F0.11,17.75,iron-based
Nb1C0.3N0.7,17.75,others
Nb0.5Sn0.5,17.705,others
Ca1Fe1.9Co0.1As2,17.7,iron-based
La1.76Sr0.24Cu1O4,17.7,cuprate
Nb1N0.98O0.02,17.7,others
Zr0.9Nb2.1Sn1,17.7,others
Zr0.66Nb2.34Sn1,17.7,others
Nb2.934V0.066Sn1,17.7,others
Ta0.06Nb2.94Al1,17.7,others
Nb2.976Ti0.024Al1,17.7,others
Nb3Zn0.2Al0.8,17.7,others
Sm1Ru0.2Fe0.8As1O0.85F0.15,17.7,iron-based
La1.885Sr0.115Cu0.995Zn0.005O4,17.64,cuprate
Nb0.66Ti0.34N0.85,17.61,others
Sm0.15Ca0.85Fe1As2,17.6,iron-based
Er0.25Pt3Ca9.75Fe10As18,17.6,iron-based
Gd1Ir0.2Fe0.8As1O1,17.6,iron-based
La1Ru0.25Fe0.75As1O0.89F0.11,17.6,iron-based
Li0.8Fe1As1,17.6,iron-based
Mg1B1.736C0.264,17.6,others
Ta0.125Nb0.625Sn0.25,17.6,others
Nb1C0.2N0.8,17.6,others
Ta0.5Nb2.5Sn1,17.6,others
Zr0.0075Nb2.9925Al1,17.6,others
Nb3Al0.81Ge0.19,17.6,others
Nb3Al0.924Se0.076,17.6,others
Nb3Al0.9Se0.1,17.6,others
Nb0.75Al0.25,17.5,others
Cu2Ge0.25Sr2Y1.3Ce0.7O8.59,17.5,cuprate
Eu0.95La0.9Ce0.15Cu1O4,17.5,cuprate
La1.745Nd0.14Sr0.115Cu1O4,17.5,cuprate
La1.75Nd0.125Sr0.125Cu1O4,17.5,cuprate
Nb1C0.2N0.74,17.5,others
Ba1Fe1.906Co0.094As2,17.464286,iron-based
Nb1Al1Sn1,17.45,others
Gd0.07Pr1.78Ce0.15Cu1O4,17.4,cuprate
Zr0.0075Nb0.7425Al0.25,17.4,others
Nb0.768Al0.146Ge0.086,17.4,others
Nb1C0.5N0.47,17.4,others
Zr0.03Nb2.97Al1,17.4,others
Nb3.07Al0.5859Ge0.279,17.4,others
Nb3Ga0.2Sn0.8,17.4,others
Pr1Fe1P0.6As0.4O0.9F0.1,17.4,iron-based
Ir4Ca10Fe10As18,17.35,iron-based
Bi1.2Pb0.8Sr1.6La0.4Cu1O6.014,17.3,cuprate
Nb1N0.998O0.002,17.3,others
Nb0.89Al0.11N0.85O0.17,17.3,others
Nb1C0.3N0.62,17.3,others
Nb1Ni0.5C0.5,17.3,others
Ta0.6Nb2.4Sn1,17.3,others
Nb3Zn0.33Al0.67,17.3,others
Nb0.8Fe0.0003Ga0.197,17.3,others
Nd1.65Y0.2Ce0.15Cu1O4,17.3,cuprate
Nd1.85Ce0.15Cu0.998Ni0.002O4,17.3,cuprate
Sm1Ir0.16Fe0.84As1O1,17.3,iron-based
Bi1Ba0.51K0.49O3,17.2,others
Nb1C0.026N0.974,17.2,others
Ca1Fe1.87Co0.13As2,17.2,iron-based
Ce1Fe1P0.05As0.95O0.95F0.05,17.2,iron-based
K0.21Ti1N1Br1,17.2,others
La1.93Sr0.07Cu1O4,17.2,cuprate
Nb1C0.2N0.7,17.2,others
Nb1N0.87O0.13,17.2,others
Nb2.859V0.141Al1,17.2,others
W0.06Nb2.94Al1,17.2,others
Nb3Al0.62Ge0.38,17.2,others
Nb0.75Al0.15Ga0.1,17.2,others
Pr1.85Th0.15Cu1O3.98,17.2,cuprate
Sm1La0.802Sr0.198Cu1O4,17.2,cuprate
Sr1Ru0.8Fe1.2As2,17.2,iron-based
Ba1Fe1.904Co0.096As2,17.1,iron-based
Ca1Fe1.8Co0.2As2,17.1,iron-based
Ca4Fe2Al2P2O6,17.1,iron-based
La0.81Gd0.06Sr0.13Fe1As1O1,17.1,iron-based
Nb2.85V0.15Sn1,17.1,others
Nb3Al0.15Ga0.85,17.1,others
Nb3Sn0.9Sb0.1,17.04,others
Ba0.797K0.203Fe2As2,17,iron-based
Ba1Fe1.83Co0.11Zn0.06As2,17,iron-based
Ba1Fe1.93Ni0.07As2,17,iron-based
Bi1.95Sr1.25Pr0.8Cu1O4,17,cuprate
Bi2Sr1.6Sm0.4Cu1O6.3,17,cuprate
Bi2Sr2Ca0.8Ce0.2Cu2O8,17,cuprate
Y0.7Th0.3C1.55,17,others
Ca0.64Na0.36Fe2As2,17,iron-based
Ca1Fe2.94Co0.06As2,17,iron-based
Ca4Fe2Al2P2O5.8,17,iron-based
Sc2Sr4Fe2P2O6,17,iron-based
Gd1Ba1.5Sr0.5Cu3O6.63,17,cuprate
H4Si1,17,others
Hf0.33Nb0.67,17,others
K0.8Fe1.992Co0.008Se2,17,iron-based
La0.6Rh4P12,17,heavy-Fermion
La0.92Pr0.85Sr0.23Cu1O4,17,cuprate
La1.04Pr0.85Sr0.11Cu1O4,17,cuprate
La1.5Sm0.3Sr0.2Cu1O4,17,cuprate
La1.83Sr0.17Cu0.98Co0.02O4,17,cuprate
La1.84Y0.04Sr0.12Cu1O4,17,cuprate
La1.9Ba0.1Cu0.99Ni0.01O4,17,cuprate
La2Cu1O4.0625,17,cuprate
Rb2Na1H2.22C60N0.74,17,others
Nb1C0.5N0.42,17,others
Nb1N1,17,others
Be0.2Nb3Al0.8,17,others
Nb0.785Al0.128Ge0.065Sn0.022,17,others
Nd1.295Gd0.555Ce0.15Cu1O4,17,cuprate
Nd1.85Th0.15Cu1O3.98,17,cuprate
Sm1H0.26Fe1P0.45As0.55O0.74,17,iron-based
Sr2Y0.7Ca0.3Cu2.35Pb0.65O6.89,17,cuprate
Y0.4Pr0.6Ba1.25Sr0.75Cu3O6.92,17,cuprate
Y0.7Th0.3C1.35,17,others
Y1.4Th0.6C3.1,17,others
Y1Ba2Cu2.919Zn0.081O6.7,17,cuprate
Y1Sr2Cu2.65Ga0.35O6.6,17,cuprate
Nb1C0.9N0.1,16.97,others
V0.7Si0.3,16.95,others
V0.75Al0.25,16.9,others
La1.72Nd0.2Ba0.08Cu1O4,16.9,cuprate
La1.74Nd0.1Ba0.16Cu1O4,16.9,cuprate
Nb3Sn2,16.9,others
Y1Ba2Cu2.7Co0.3O6.93,16.9,cuprate
Nb3Ga0.15Sn0.7Sb0.15,16.89,others
Nb3Ga1,16.888889,others
Nb3Al0.2Sn0.8,16.85,others
V0.75Si0.25,16.837143,others
Ca1Fe1.854Co0.146As2,16.8,iron-based