Formula,Tc,Materials_family
Ir0.95Pt0.05Te2,2.683333,others
Y1Au1.3Pd0.7In1,2.68,others
Ce1Bi1O0.7S2F0.7,2.68,others
Ru1In3,2.68,others
Ir1Pd0.03Te2,2.68,others
Pr1Pt4Ge11Sb1,2.68,heavy-Fermion
Y2Pt0.1Pd0.9Ge3,2.68,others
Zn0.025In2O3,2.68,others
Ta1Ni0.05S2,2.6775,others
Tl0.97Ag0.03,2.67,others
Tl1Ag1,2.67,others
Zr0.6462Co0.3538,2.67,others
Lu1Ir3.6Rh0.4B4,2.67,heavy-Fermion
Sc1Mo6S7,2.67,others
Th1Am0.01Si2,2.66,heavy-Fermion
Lu1Os1B2,2.66,heavy-Fermion
Pb1Nb1S3,2.66,others
Pb0.2375In0.05Sn0.7125Te1,2.66,others
Pb2Rh1,2.66,others
Pd34Se11,2.66,others
Y1Mo6S7,2.66,others
Au2Pb1,2.6575,others
Ta2Bi1.09S5.09,2.65,others
Zr2Fe0.1Ni0.9,2.65,others
La3Ru4Sn13,2.65,heavy-Fermion
Na0.34H2.6Co1O3.3,2.65,others
Nb1Ru1Si1,2.65,others
Yb1Pb1Pd2,2.65,heavy-Fermion
Ta0.75V0.25,2.65,others
Sm1Rh4B4,2.6475,heavy-Fermion
Y1Au1.6Pd0.4In1,2.64,others
Nb1Sn2,2.64,others
Sn0.98Sb0.02,2.64,others
Sr1Pd1.98Ag0.02Ge2,2.64,others
Tl1.5K1C4,2.63,others
La1Pt0.6Ni0.4Si1,2.63,heavy-Fermion
V0.97Sb0.03,2.63,others
La1Pd1Si3,2.625,heavy-Fermion
Pb0.2373In0.05Sn0.7127Te1,2.62,others
Sr1Pd1.9Ag0.1Ge2,2.62,others
Y2Pt0.2Pd0.8Ge3,2.62,others
V0.9Cr0.1,2.6125,others
V0.98Co0.02,2.61,others
Zr0.97Co0.03,2.61,others
Rh0.01Co1.99Cu1S4,2.61,others
Ir0.9Rh0.1Te2,2.61,others
Y1Tm4Rh6Sn18,2.61,heavy-Fermion
Ir2Cu0.6Zn0.4S4,2.605,others
Ag1Te3,2.6,others
Th3Al2,2.6,heavy-Fermion
Au0.3Pd0.033Te0.666,2.6,others
Pt0.3Ba1Si1.7,2.6,others
Be0.35Zr0.65,2.6,others
Co2Cu1S4,2.6,others
Er1Co0.09Ni1.955B2C1,2.6,heavy-Fermion
Lu1Ge2,2.6,heavy-Fermion
Hf0.87Mo0.13,2.6,others
In1.15Te1,2.6,others
Y1Os1Ir1,2.6,others
La1Ni2P2,2.6,heavy-Fermion
La1Rh3,2.6,heavy-Fermion
Li2Mo15Se19,2.6,others
Lu1V0.2Ni0.8B1C1,2.6,heavy-Fermion
Lu1Co0.4Ni1.8B2C1,2.6,heavy-Fermion
Lu1Ni1B0.8C1,2.6,heavy-Fermion
Lu1Ni1B0.9C1,2.6,heavy-Fermion
Mo0.25Ru0.75,2.6,others
Mo0.94Fe0.06Ga4,2.6,others
Ba6Na1.5Si46,2.6,others
Zr0.67Ni0.33,2.6,others
Zr0.73Pd0.27,2.6,others
Rh0.06Ti0.94,2.6,others
Bi2Sr0.065Se3,2.6,others
Pt0.14Sr1Pd1.86Ge2,2.6,others
Sr1Ni0.2Si1.8,2.6,others
Th3Ir4Sn13,2.6,heavy-Fermion
Tm4Os4Si13,2.6,heavy-Fermion
Y3Pt4Ge6,2.6,others
Yb1Ga1.15Si0.85,2.6,heavy-Fermion
Zr1Ru0.8Fe0.2P1,2.6,others
Bi3.95Cu0.05S3O4,2.595,others
Ba1Ni2Ge0.2P1.8,2.59,others
Bi0.6Ba1Ti2Sb1.4O1,2.59,others
Y0.4Er0.6Pd2Sn1,2.59,heavy-Fermion
La7Rh3,2.59,heavy-Fermion
La0.98Tb0.0085Lu0.0115,2.582,others
Re1,2.581333,others
Ru0.7B0.3,2.58,others
La0.98Ce0.02,2.58,others
La0.9Pr0.1Pb3,2.58,heavy-Fermion
Zr0.7Ni0.3,2.58,others
Sr1Ga0.65Si1.35,2.58,others
Sr1Pd1.94Co0.06Ge2,2.58,others
Th0.1Zr0.9,2.58,others
Nb0.7Mo0.3,2.575,others
La1Rh3B2,2.57,heavy-Fermion
Pb0.192In0.04Sn0.768Te1,2.57,others
Sm1Fe0.95Co0.05As1O1,2.565,iron-based
Ce0.8Tb0.2Ru2,2.56,heavy-Fermion
La0.94Nd0.06Pt1Si1,2.56,heavy-Fermion
Pd1Te1.02,2.56,others
U6Mn0.5Co0.5,2.55,others
La3Ir4Sn13,2.55,heavy-Fermion
Lu5Ir4Ge10,2.55,heavy-Fermion
Ti0.86Mn0.14,2.55,others
Nb3Rh0.9Pd0.1,2.55,others
Pr1Mo6S8,2.55,others
Tl0.82Cd0.18,2.54,others
La1Pb0.75Sn2.25,2.54,heavy-Fermion
Ta0.5V0.5,2.54,others
Au0.02Nb3Rh0.98,2.53,others
Ba1Cu0.5Si1.5,2.53,others
Ir1Cu0.03Te2,2.53,others
La0.99Tb0.01,2.53,others
Zr0.9605Mo0.0395,2.53,others
Pt0.05Nb3Rh0.95,2.53,others
Zr0.7Pd0.3,2.53,others
Th1Ir0.8Ru1.2,2.53,heavy-Fermion
Th1Ir1Ru1,2.53,heavy-Fermion
Be22Mo1,2.5275,others
Au0.07Zr0.93,2.52,others
Tl0.6In0.4,2.52,others
Os2Nb1,2.52,others
Pt0.02Nb3Rh0.98,2.52,others
Au0.05Nb3Rh0.95,2.52,others
H0.84Pd0.985Ni0.015,2.52,others
Sr1Pd1.8Ag0.2Ge2,2.52,others
Y2Pt0.3Pd0.7Ge3,2.52,others
Bi1Nb3,2.516667,others
Hf0.661W0.339,2.51,others
La1Ru2.9175Fe0.0825Si2,2.51,heavy-Fermion
Nb1.8V0.2B5,2.5,others
Ba1Nb2Se5,2.5,others
La4Pb2Bi1,2.5,heavy-Fermion
Mo6Cd1.3Se7.5,2.5,others
Os0.2Cr0.8,2.5,others
Rh0.04Ti0.91Cu0.05,2.5,others
Gd0.28Er0.72Rh4B4,2.5,heavy-Fermion
Tb1Ga6,2.5,heavy-Fermion
Hf0.9Mo0.1,2.5,others
In1Sn1Sb1,2.5,others
Ir0.95Pd0.05Te2,2.5,others
Y0.25La0.75,2.5,others
Y0.05La0.95Bi1O0.5S2F0.5,2.5,others
La1.85Sr0.15Cu0.973Co0.027O4,2.5,cuprate
La1Bi1O0.5S1.6Se0.4F0.5,2.5,others
La1Rh1P1,2.5,heavy-Fermion
Li1.2Rh1B1.5,2.5,others
Li1Rh1B1.5,2.5,others
Lu1Ni1B0.95C0.95,2.5,heavy-Fermion
Lu2Ir2.4Rh0.6Si5,2.5,heavy-Fermion
Mg0.7Ni3Zn0.3C0.99,2.5,others
Mg0.7Ni3Zn0.3C1,2.5,others
Mg0.9Mo5.1S6,2.5,others
Pt1Mg1Si1,2.5,others
K1Na2C60,2.5,others
Nb0.4Ru0.6,2.5,others
Pt0.1Nb0.9,2.5,others
Nb3Rh0.98Pd0.02,2.5,others
Ta1Ni0.02Se2,2.5,others
Ru0.05Ti0.95,2.5,others
Sm1Fe1P1O1,2.5,iron-based
Y4Os6Sn19,2.5,others
Yb3Co4Sn13,2.5,heavy-Fermion
La3Pd4Ge4,2.493333,heavy-Fermion
T0.786Pd1,2.493,others
Ba1Ti2Sn0.6Sb1.4O1,2.49,others
Nb3Rh0.95Pd0.05,2.49,others
Zr0.71Pd0.29,2.49,others
Pb0.5039In0.16Sn0.3361Te1,2.49,others
Dy0.9Lu0.1Ni2B2C1,2.485,heavy-Fermion
Zr0.65Co0.35,2.48,others
Tl0.55In0.45,2.48,others
Eu1Pb1S1Se1,2.48,others
Bi2Sr0.062Se3,2.48,others
Lu1Ir2,2.47,heavy-Fermion
Rh0.02Ti0.98,2.465,others
Bi1Li1,2.4625,others
Ca1Al0.74Si1.26,2.46,others
Sc1Ir2.5,2.46,others
Y2Pt0.4Pd0.6Ge3,2.46,others
U6Mn1,2.4525,heavy-Fermion
La0.998Gd0.002Al2,2.45,heavy-Fermion
Ba1Ni2Ge0.6P1.4,2.45,others
Cu0.95Zn0.05Se2,2.45,others
Tl1.5K1C8,2.45,others
La0.85Ce0.15Ru2,2.444,heavy-Fermion
Re0.62Nb0.38,2.44,others
Nb3Ru0.1Rh0.9,2.44,others
Zr0.69Ni0.31,2.44,others
Zr0.635Ni0.365,2.44,others
Zr0.59Rh0.41,2.44,others
Tm0.84Lu0.16Fe3Si5,2.44,heavy-Fermion
Nb6Sn5,2.435,others
Ir0.02Nb3Rh0.98,2.43,others
Re0.6Nb0.4,2.43,others
La3Co4Sn13,2.425,heavy-Fermion
Pt1Sr1As1,2.425,others
Os0.02Nb3Rh0.98,2.42,others
Nb3Ru0.05Rh0.95,2.42,others
Nb3Ru0.02Rh0.98,2.42,others
Y2Pt0.5Pd0.5Ge3,2.42,others
Tl0.995In0.005,2.418,others
Ir1Cu0.1Te2,2.41,others
Ir2Cu0.55Zn0.45S4,2.41,others
La3Ru0.5Co3.5Sn13,2.41,heavy-Fermion
Y0.95Gd0.05Pd2Sn1,2.41,others
Th1Si1,2.41,heavy-Fermion
Ba1Ga1Ge1,2.4,others
La4Pb1.5Bi1.5,2.4,heavy-Fermion
Bi6O8S5,2.4,others
Mo6Cd1Se8,2.4,others
Ce1Ru1.95Co0.05,2.4,heavy-Fermion
Y1Ge1.62,2.4,others
Ho1Co0.056Ni1.972B2C1,2.4,heavy-Fermion
Y1Ir1.5O0.5,2.4,others
La0.996Tb0.004Al2,2.4,heavy-Fermion
La13Ga8Sb21,2.4,heavy-Fermion
La1Rh1Al1,2.4,heavy-Fermion
La2.406Pr0.594Tl1,2.4,heavy-Fermion
Lu1Ni1B1.1C0.9,2.4,heavy-Fermion
Lu1Ni1B1C0.85,2.4,heavy-Fermion
Lu1Ru2Si2,2.4,heavy-Fermion
Rh0.04Ti0.91Mn0.05,2.4,others
Mo6Te5I3,2.4,others
Nb0.05Rh0.04Ti0.91,2.4,others
Zr0.85Nb0.15Ni2Ga1,2.4,others
V0.97O0.03,2.4,others
Lu1Pb1Pd2,2.4,heavy-Fermion
Sc1Pb1Pd2,2.4,others
W0.85Re0.15,2.4,others
Zr0.98Rh0.02,2.4,others
Sm1.2Mo6S8,2.4,others
Y0.7Ca0.3C2,2.4,others
Y1Os0.5Ir1.5,2.4,others
Yb0.2Mo1S2,2.4,others
Yb1Ga1.1Si0.9,2.4,heavy-Fermion
Zr0.55Co0.3Al0.15,2.4,others
Ti1Cu0.06Se2,2.396667,others
Ir0.85Rh0.15Te2,2.39,others
Os0.05Nb3Rh0.95,2.39,others
Yb1Pd2Sn1,2.39,heavy-Fermion
Ir0.92Pt0.08Te2,2.385,others
Pr1Ru4As12,2.3825,heavy-Fermion
Au0.2Sn0.8,2.38,others
Hf0.909W0.091,2.38,others
Ir0.05Nb3Rh0.95,2.38,others
V0.92Al0.08,2.36,others
Bi1.1Nb1Se3.1,2.36,others
La0.8Hf0.2Bi1O1S2,2.36,others
La1Bi1Rh1,2.36,heavy-Fermion
Zr2Pd1,2.36,others
In0.16Ge0.042Sn0.798Te1,2.36,others
Th1Os0.7Ir1.3,2.36,heavy-Fermion
Ti0.595V0.255Al0.15,2.36,others
U6Co1,2.358,heavy-Fermion
Nb3As1,2.353333,others
Ag1In2,2.35,others
Ba1Fe1.936Co0.044Cu0.02As2,2.35,iron-based
Ce0.2Nd0.8Bi1O0.7S2F0.3,2.35,others
Y1Ge3,2.35,others
La0.8Bi1Ti0.2O1S2,2.35,others
La5Ru2,2.35,heavy-Fermion
Ta0.6Rh0.4,2.35,others
Ta3Rh2,2.35,others
Y0.6Tb0.4Ni2B2C1,2.346667,others
Hf0.96Rh0.04,2.34,others
Zr0.69Pd0.31,2.34,others
Pr1Fe1P1O0.9F0.1,2.34,iron-based
La7Ir3,2.33,heavy-Fermion
Ti0.975Mn0.025,2.33,others
Tl0.06Ag0.94,2.32,others
Hg1Ba1,2.32,others
In0.16Ge0.084Sn0.756Te1,2.32,others
Ir0.37Nb0.63,2.316667,others
Ba1Ti2Sn0.4Sb1.6O1,2.31,others
Zr2Fe0.15Ni0.85,2.31,others
Pt2.1Li2Pd0.9B1,2.31,others
Pt0.38Nb0.62,2.31,others
Zr0.6Ni0.4,2.31,others
Zr1Te3,2.308333,others
Sr1Fe1.78Ni0.22As2,2.305,iron-based
Y1Au1Pd1In1,2.3,others
Be2Nb3,2.3,others
Pt1Be5,2.3,others
La4Pb1Bi2,2.3,heavy-Fermion
Ta0.2Zr0.8C1,2.3,others
Na1C3,2.3,others
Ca1Cu0.33Si1.67,2.3,others
Pt1Ca1Si3,2.3,others
Tl0.83Cd0.17,2.3,others
Dy0.85Tm0.15Ni2B2C1,2.3,heavy-Fermion
Ir0.1Nb0.9,2.3,others
Ir0.265Ti0.65O0.035,2.3,others
Ir0.265Zr0.65O0.085,2.3,others
La1.8Sr0.2Cu0.96Zn0.04O4,2.3,cuprate
La1Ir1Si1,2.3,heavy-Fermion
Lu3Rh4Ge13,2.3,heavy-Fermion
Lu3Ru4Ge13,2.3,heavy-Fermion
V1N0.75,2.3,others
Nb2Se3,2.3,others
Os0.1Nb3Rh0.9,2.3,others
Zr0.7Nb0.3Ni2Ga1,2.3,others
Pd2.8Se1,2.3,others
Pd5Se2,2.3,others
Pr1Th3.4Ru0.6B4,2.3,heavy-Fermion
Re0.05Rh0.04Ti0.91,2.3,others
Ta0.05Rh0.04Ti0.91,2.3,others
Sr1Ni0.1Si1.9,2.3,others
Ta1Ge2,2.3,others
Ta2Zr1,2.3,others
Tm4Rh6Sn19,2.3,heavy-Fermion
Y2C2Cl2,2.3,others
Ce1Bi1O0.55S2F0.45,2.295,others
Cd1Sn1As2,2.29,others
Re0.67Cr0.33,2.29,others
La0.93Nd0.07Pt1Si1,2.29,heavy-Fermion
Y0.1La0.9Ni1C2,2.29,others
La1Pt0.5Ni0.5Si1,2.285,heavy-Fermion
Ba8Si23Ge23,2.28,others
Nb3Rh0.98Co0.02,2.28,others
Mo0.15V0.85,2.28,others
Pd1Te1.04,2.28,others
Ru0.12Rh0.88Se2,2.28,others
Pb0.2854In0.05Sn0.6646Te1,2.28,others
Y1Au1.8Pd0.2In1,2.27,others
Hf1Os2,2.27,others
La0.96Gd0.04Ru2,2.27,heavy-Fermion
Th7Fe0.72Co2.28,2.27,heavy-Fermion
Y2Pd1C0.75Si2.25,2.27,others
Pt2Ba1As2,2.2625,others
Cu0.6Sn0.4,2.26,others
Nb0.85Pd0.15,2.26,others
Y2Pt0.7Pd0.3Ge3,2.26,others
Ce1Hg0.0008Co1In4.9992,2.254,heavy-Fermion
Ce1Hg0.0024Co1In4.9976,2.252,heavy-Fermion
Bi0.57Sn0.43,2.25,others
Bi1Na1,2.25,others
Y3Bi2,2.25,others
Ce1Bi1O0.67S2F0.33,2.25,others
Ce1Ru0.1Co0.9In5,2.25,heavy-Fermion
Rh0.5Co0.5Si2,2.25,others
Lu1Ga3,2.25,heavy-Fermion
La0.1Ho0.9Ni2B2C1,2.25,heavy-Fermion
Ir0.34Nb0.66,2.25,others
La6Ni2Sn1,2.25,heavy-Fermion
Pb0.194In0.03Sn0.776Te1,2.25,others
Th1Os1.9Ir0.1,2.25,heavy-Fermion
La1Rh1Si3,2.245,heavy-Fermion
Ti1Cu0.055Se2,2.24,others
Zr0.68Pd0.32,2.24,others
Y2Pd1Si1Ge2,2.24,others
Nb2Pd1S3.75Se1.25,2.23,others
Re0.83Ru0.17,2.23,others
Y1Ru2,2.23,others
In0.16Ge0.126Sn0.714Te1,2.23,others
Ce1Cd0.0055Co1In4.9945,2.226,heavy-Fermion
Th2Ag1,2.225,heavy-Fermion
Ir2Ga9,2.225,others
Cu1Se2,2.22375,others
Er1Ir4B4,2.22,heavy-Fermion
La0.7Bi1Ti0.3O1S2,2.22,others
Tm5Rh6Sn18,2.22,heavy-Fermion
Y1Os1B2,2.22,others
Au1V3,2.2192,others
In0.16Sn0.84Te1,2.2175,others
Th1Ir2Si2,2.215,heavy-Fermion
Ce1Co1In4.996Sn0.004,2.21,heavy-Fermion
Pd1.5Te2,2.21,others
In1Te1,2.206,others
Au0.41Ge0.59,2.2,others
Ba1Ti2Sn0.3Sb1.7O1,2.2,others
Ba1Ti2Sn0.2Sb1.8O1,2.2,others
Re2Bi1,2.2,others
U6Mn0.08Co0.92,2.2,heavy-Fermion
Co1.25Cu1.75S4,2.2,others
Cu1S1.8Se0.2,2.2,others
Hf1Ge2,2.2,others
Hf1H1.6V2,2.2,others
Ho1Ir2.4Rh1.6B4,2.2,heavy-Fermion
La0.55Lu0.45,2.2,others
La0.84Pr0.16,2.2,others
La3Ni4P4O2,2.2,others
La3Pb13Rh4,2.2,heavy-Fermion
W1Li0.3O3,2.2,others
Lu1Mo6S8,2.2,others
Na0.33H2.6Co1O3.3,2.2,others
Nb0.83Pd0.17,2.2,others
W0.85Os0.15,2.2,others
Pd0.67Se0.33,2.2,others
Pd1.25Te2,2.2,others
Pd2Se1,2.2,others
Re0.6V0.4,2.2,others
Sc5Re24,2.2,others
Ag0.25Sn0.75Te1,2.2,others
Y0.92Gd0.08Ru2,2.2,others
Y1Pd2Al3,2.2,others
Y2Pd1C1Si2,2.2,others
Y4Ir6Sn19,2.2,others
Yb0.2W1Se2,2.2,others
Ir2Cu0.5Zn0.5S4,2.195,others
La1Bi1O0.5S1.8Se0.2F0.5,2.19,others
Ce1Ru0.2Co0.8In5,2.18,heavy-Fermion
Ce1Cd0.011Co1In4.989,2.18,heavy-Fermion
Zr0.57Rh0.43,2.18,others
Mo3Ge1,2.1792,others
La1Ge1.81,2.17,heavy-Fermion
La1Ge1.83,2.17,heavy-Fermion
La1Ge1.85,2.17,heavy-Fermion
La1Ge1.9,2.17,heavy-Fermion
La0.989Eu0.011,2.16,others
Mo0.77Ge0.23,2.16,others
Y0.3Ir0.7,2.16,others
W1Na0.23O3,2.16,others
Pb0.368In0.08Sn0.552Te1,2.16,others
Er1Fe0.1Ni1.9B2C1,2.155,heavy-Fermion
Ba1Fe1.856Cu0.088As2,2.15,iron-based
Be2Nb1,2.15,others
Ce1Cd0.0165Co1In4.9835,2.15,heavy-Fermion
Re0.6Cr0.4,2.15,others
La0.988Eu0.012,2.15,others
Nd1.85Ce0.15Cu0.994Co0.006O4,2.15,cuprate
Ir1Pd0.02Te2,2.15,others
Th7Rh3,2.15,heavy-Fermion
Ag0.15Sn0.85Te1,2.15,others
Th1Rh0.1Si1.9,2.15,heavy-Fermion
Sc1Pd2Sn1,2.145,others
Tl5Te3,2.144,others
Ce1Co1Zn0.125In4.875,2.14,heavy-Fermion
Ce1Cd0.02Co1In4.98,2.14,heavy-Fermion
Mg1Ru0.4Ni2.6C1,2.14,others
Y2Pt1Ge3,2.14,others
La0.3Ce0.7Ru2,2.134,heavy-Fermion
W2B1,2.133333,others
Ta1V2,2.133333,others
Ce0.987Yb0.013Co1In5,2.13,heavy-Fermion
Ce1Ru0.3Co0.7In5,2.13,heavy-Fermion
Ce1Cd0.25Co1In4.75,2.13,heavy-Fermion
Ir0.05Co1.95Cu1S4,2.13,others
Zr2Fe0.2Ni0.8,2.13,others
Zr2Fe0.33Ni0.67,2.13,others
Hf0.915Mo0.085,2.13,others
Ir1Zr3,2.13,others
La1Ir5,2.13,heavy-Fermion
La0.42Bi1Sr0.58S2F1,2.13,others
U0.84Mo0.16,2.121,others
Rh3Ge2,2.12,others
Rh5Ge2,2.12,others
Rh5Ge3,2.12,others
Ho1.1Ir4B3.6,2.12,heavy-Fermion
La0.6Th0.4Bi1O1S2,2.12,others
Pt3Li2B0.95Al0.05,2.12,others
Zr0.9671Mo0.0329,2.12,others
Ru0.42V0.58,2.12,others
Y3Ru4Ge13,2.116667,others
U0.82Mo0.18,2.115333,others
U0.8Mo0.2,2.113,others
Ag2In1,2.11,others
Ba1Cu0.4Si1.6,2.11,others
Zr0.792Mn0.01Cu0.198,2.11,others
Er1Ir2.4Rh1.6B4,2.11,heavy-Fermion
Hf0.93Mo0.07,2.11,others
V0.97Ni0.03,2.11,others
Pd1Te1.06,2.11,others
La0.98Tb0.01Lu0.01,2.108,others
U0.85Mo0.15,2.105,others
Mo6Pd1Al1,2.1,others
Ir2Ba1P2,2.1,others
Be0.4Zr0.6,2.1,others
W3Ir2C1,2.1,others
Ca3Rh4Ge13,2.1,others
Ce1Pt2In7,2.1,heavy-Fermion
Ru0.4Cr0.6,2.1,others
W1Cs0.1Li0.1O2.8F0.2,2.1,others
Dy1Co0.03Ni1.985B2C1,2.1,heavy-Fermion
U6Fe0.5Ni0.5,2.1,others
Fe0.98Ni0.02Se0.3Te0.7,2.1,iron-based
Sc1Ga3,2.1,others
W1K0.1O2.9F0.1,2.1,others
K2Mo15Se19,2.1,others
La1.85Sr0.15Cu0.95Ni0.05O4,2.1,cuprate
La1Bi2Pd0.85,2.1,heavy-Fermion
La1Rh1Sb1,2.1,heavy-Fermion
La7Ni3,2.1,heavy-Fermion
Mo3Sb4,2.1,others
Nb3Pd0.7Se7,2.1,others
Tm1Pb1Pd2,2.1,heavy-Fermion
Zr0.9Nb0.1Pd2Al1,2.1,others
Zr0.66Pd0.34,2.1,others
Pt1Sb1,2.1,others
Ta1Se3,2.1,others
Sr1Pd1Ni1Ge2,2.1,others
Pt2Sr1Sb2,2.1,others
Y0.44Pr0.56Ba2Cu3O6.93,2.1,cuprate
Y1.2Mo6S8,2.1,others
Y1Rh1Sb1,2.1,others
Ir0.7Rh0.3Te2,2.09,others
W1K0.38O3,2.09,others
Zr0.61Pd0.285O0.105,2.09,others
W0.57Pt0.43,2.09,others
Sc1Ru2,2.09,others
Th1Ir3B2,2.09,heavy-Fermion
Ca1Ni1B1N1,2.08,others
Cs1Fe2As2,2.08,iron-based
Y0.2Er0.8Pd2Sn1,2.08,heavy-Fermion
Y0.15La0.85Ni1C2,2.08,others
Ta0.925Re0.075,2.08,others
Th1Ir1.4Ru0.6,2.08,heavy-Fermion
Bi9.88Ca10,2.075,others
W1Tl0.03O3,2.07,others
Tm1Rh1.3Sn4,2.07,heavy-Fermion
La3Pd4Si4,2.065,heavy-Fermion
U0.78Mo0.22,2.06,others
Pb0.0951In0.05Sn0.8549Te1,2.06,others
Zr1Ru2,2.053333,others
Ce1Au2Si2,2.051667,heavy-Fermion
La1B6,2.05,heavy-Fermion
Ce1Cd0.04Co1In4.96,2.05,heavy-Fermion
Ir0.99Pt0.01Te2,2.05,others
La1.78Sr0.22Cu0.95Ni0.05O4,2.05,cuprate
La1.8Nd0.05Ca0.074Ba0.076Cu1O4,2.05,cuprate
Nb0.25Ti0.5Sb0.25,2.05,others
Ta1Se1.4Te0.6,2.05,others
Ti0.18V0.72Al0.1,2.05,others
La0.8Th0.2Bi1O1S2,2.046,others
Au0.27Tl0.73,2.04,others
Bi1Rh1,2.04,others
Ta1C0.848,2.04,others
Tl3Ca1,2.04,others
Ce1Ir0.1Rh0.9In5,2.04,heavy-Fermion
Zr2Fe0.36Ni0.64,2.04,others
In0.91Te1,2.04,others
La0.7Th0.3Bi1O1S2,2.04,others
La0.92Nd0.08Pt1Si1,2.04,heavy-Fermion
Pd0.7Se0.3,2.04,others
Ir1Zr1Si1,2.04,others
Ce1Co1In5,2.037308,heavy-Fermion
Nb0.6Pd0.4,2.035,others
Y4Co3,2.033333,others
La0.9991Ce0.0009Pt1Si1,2.03,heavy-Fermion
V1N0.7,2.03,others
Cs2Cr3As3,2.025,others
W1In0.11O3,2.025,others
Ru1C1,2.02,others
Ru1Cr2,2.02,others
Zr2Fe0.3Ni0.7,2.02,others
U0.86Mo0.14,2.02,others
Th7Fe3,2.016667,heavy-Fermion
Re0.98Rh0.02,2.014,others
U0.82Nb0.18,2.011,others
La0.8Ce0.2Ru2,2.01,heavy-Fermion
U0.78Nb0.22,2.01,others
Ta0.33Pb1Nb0.67S3,2.01,others
Ta0.03Zr0.97,2.01,others
W0.801Zr0.199,2.01,others
U0.8Nb0.2,2.009,others
Sc1Au1,2,others
Ba1Pd2As2,2,others
Ir4C6O2,2,others
Ca1Fe1.6Co0.4As2,2,iron-based
La0.02Ce0.98Co1In5,2,heavy-Fermion
Ce1H1Fe0.96Co0.04As1,2,iron-based
Ce1H1Fe0.98Co0.02As1,2,iron-based
Ce1Ir0.3Co0.7In5,2,heavy-Fermion
U6Rh0.06Co0.94,2,heavy-Fermion
Ru2Cr1,2,others
W1Cs0.3O3,2,others
Cs1I1,2,others
Ti2Cu0.06Se2,2,others
Co1.8Cu1.2S4,2,others
Tb0.6Er0.4Ni2B2C1,2,heavy-Fermion
Tb0.3Er0.7Ni2B2C1,2,heavy-Fermion
Eu1Fe1.76Co0.24As2,2,iron-based
Y1Ga6,2,others
Ho1Ir4B4,2,heavy-Fermion
La1Ru2B0.4P1.6,2,heavy-Fermion
Dy0.68Lu0.32Ni2B2C1,2,heavy-Fermion
Dy0.7Lu0.3Ni2B2C1,2,heavy-Fermion
Lu1Ru4B4,2,heavy-Fermion
Yb0.05Lu4.95Ir4Si10,2,heavy-Fermion
Mo0.04Ti0.96,2,others
Na0.45H2.6Co1O3.3,2,others
Na0.4H2.6Co1O3.3,2,others
Nb2C1As1,2,others
Nb3P1,2,others
Zr0.5Nb0.5Ni2Ga1,2,others
Zr0.55Ni0.45,2,others
Y1Re1Os1,2,others
Sn1P1,2,others
Pd0.24Ti0.76,2,others
Ho1Pd0.2Te3,2,others
Pr1Fe0.8Co0.2As1O1,2,iron-based
W1Rb0.1Li0.1O2.8F0.2,2,others
Rh0.04Ti0.96,2,others
Rh0.91Ti0.09,2,others
Ta1Rh1,2,others
Sc1Rh2Sn1,2,others
Eu0.95Sr0.05Fe1.76Co0.24As2,2,iron-based
Eu0.85Sr0.15Fe1.76Co0.24As2,2,iron-based
Sr1Fe1.888Co0.112As2,2,iron-based
Sr1Fe1.916Co0.084As2,2,iron-based
W1Tl0.3O3,2,others
V0.745Al0.025Sb0.208,2,others
La0.9941Tb0.0059Al2,1.996,heavy-Fermion
Au0.3Te0.7,1.99,others
La2Ir3Si5,1.99,heavy-Fermion
Tl1,1.989218,others
Rb1Fe2As2,1.983333,iron-based
Zr2Ni1,1.981667,others
Re0.96C0.04,1.98,others
Y0.31Ir0.69,1.98,others
U0.778Nb0.222,1.98,others
Nb0.8Pd0.2,1.98,others
Th0.7Ni0.3,1.98,others
W1Rb0.27O3,1.98,others
Zr0.65Pd0.35,1.98,others
W0.965Pt0.035,1.98,others
La1Ge2,1.976667,heavy-Fermion
In1N1,1.975,others
Th7Ni3,1.975,heavy-Fermion
Ce0.875Yb0.125Co1In5,1.97,heavy-Fermion
La1Ni1Ga2,1.97,heavy-Fermion
U0.7Mo0.3,1.97,others
Mo1Rh1,1.97,others
Tm5Rh4.8Co1.2Sn18,1.97,heavy-Fermion
Th0.02U0.98Pd2Al3,1.97,heavy-Fermion
Re0.98Ir0.02,1.968,others
Bi4Rh1,1.966667,others
Rb1Na2C60,1.966667,others
V0.9Al0.1,1.96,others
Au0.28Te0.72,1.96,others
Sn1I4,1.96,others
La1Ni1B1N1,1.96,heavy-Fermion
Nb3Rh0.95Co0.05,1.96,others
Nb0.99Ti2.01Sb1,1.96,others
Rh0.04Ag0.05Ti0.91,1.95,others
Ce0.95Nd0.05Co1In5,1.95,heavy-Fermion
Hf0.8Rh0.2,1.95,others
La1Pt1.8Ge2.2,1.95,heavy-Fermion
La3Co2Sn13,1.95,heavy-Fermion
Lu1.2Mo6S8,1.95,others
Nb0.83Sb0.17,1.95,others
Ta1Os1,1.95,others
Ag0.33Sn0.67Te1,1.95,others
Ag0.4Sn0.6Te1,1.95,others
Ta0.85W0.15,1.95,others
Ti0.85V0.15,1.95,others
Tm1.2Mo6S8,1.95,others
Y1Ir2Si2,1.949167,others
Ce0.95Yb0.05Co1In5,1.945,heavy-Fermion
La1Pt0.4Ni0.6Si1,1.945,heavy-Fermion
Nb3Se4,1.9425,others
Ta0.5W1.5B1,1.94,others
La3Pr0.75In1,1.94,heavy-Fermion
U0.99Pd2Al3,1.94,heavy-Fermion
Y1Pb2.25In0.75,1.94,others
Re0.9865Ru0.0135,1.937,others
Re0.9467Os0.0533,1.934,others
Ta1S2,1.933333,others
Ce1Ru1.93Co0.07,1.93,heavy-Fermion
Re0.942Os0.058,1.93,others
Re0.94Os0.06,1.93,others
Pd0.12Ti1Se2,1.93,others
In0.16Ge0.168Sn0.672Te1,1.93,others
Rh2Ga9,1.925,others
Au1Tl1,1.92,others
Ce1Cd0.055Co1In4.945,1.92,heavy-Fermion
Rh1.78Cu1Sn0.22Se4,1.92,others
Ir0.88Pt0.12Te2,1.92,others
La0.9481Ce0.0519Sn3,1.92,heavy-Fermion
La0.98Pr0.02Ru2,1.92,heavy-Fermion
Zr0.79Mn0.0125Ni0.1975,1.92,others
Re0.954Os0.046,1.92,others
Re0.935Os0.065,1.92,others
La1Rh1Sn1,1.916667,heavy-Fermion
Mo0.5Rh0.5,1.91,others
U0.88Mo0.12,1.91,others
W1Ba0.13O3,1.9,others
W1Ba0.13P3,1.9,others
Li1C2,1.9,others
Pt1Ga2,1.9,others
Nb2Ge1,1.9,others
Hf0.9Rh0.1,1.9,others
Ho1Ir3.6Rh0.4B4,1.9,heavy-Fermion
Y1Au2In1,1.9,others
K0.8Fe2S1.58Se0.42,1.9,others
Lu1Pt2Si2,1.9,heavy-Fermion
Ti0.98Mn0.02,1.9,others
Nb0.76Pd0.24,1.9,others
Nb3Rh0.9Co0.1,1.9,others
Ta1Ni0.06S2,1.9,others
Y1S1,1.9,others
Sc4Rh6Ge19,1.9,others
Sn0.35Te0.65,1.9,others
In0.073Sn0.915Te1,1.9,others
In0.038Sn0.95Te1,1.9,others
Zr5Sn3,1.9,others
Th3Rh4Sn13,1.9,heavy-Fermion
Sm1Fe0.8Co0.2As1O1,1.895,iron-based
Au0.332Te0.668,1.89,others
Ce0.98Yb0.02Co1In5,1.89,heavy-Fermion
Ce1Rh0.07Co0.93In5,1.89,heavy-Fermion
V0.945Cr0.055,1.89,others
La0.997Gd0.003Al2,1.89,heavy-Fermion
Ho0.5Lu4.5Ir4Si10,1.89,heavy-Fermion
Nb0.72Pd0.28,1.89,others
Pd0.95Te2,1.89,others
Pd1Te2.1,1.89,others
U1Be12.9896B0.0104,1.89,heavy-Fermion
Bi1Ba0.35K0.65O3,1.88,others
Hg1K1C8,1.88,others
La0.85Pr0.15Pb3,1.88,heavy-Fermion
Re0.916Os0.084,1.88,others
Pd1Te1.08,1.88,others
Ru0.77Rh0.23As1,1.88,others
U1.01Pd2Al3,1.88,heavy-Fermion
Y0.5La0.5Rh3B2,1.88,others
Re0.9167Os0.0833,1.876,others
Pt1Ba1Si3,1.875,others
La1Ge1.8,1.87,heavy-Fermion
La0.2Th0.8,1.87,others
Nb2Pd1S3.5Se1.5,1.87,others
Tl0.0125Pb0.987Na0.005Te1,1.87,others
In0.16Ge0.21Sn0.63Te1,1.87,others
Zr2Co0.3Ni0.7,1.87,others
U1Pd2Al3,1.864,heavy-Fermion
Ag0.2Sn0.8Te1,1.863333,others
B1I3,1.86,others
Ce1Co0.95Ni0.05In5,1.86,heavy-Fermion
Ce1Co1In4.97Sn0.03,1.86,heavy-Fermion
La0.9462Ce0.0538Sn3,1.86,heavy-Fermion
La1Pt1.85Ge2.15,1.86,heavy-Fermion
Zr0.995Nb0.005,1.86,others
Nb0.5V0.5N0.94,1.86,others
Nb0.67V0.33N0.94,1.86,others
V0.96Sn0.04,1.86,others
Ta0.84W0.16,1.86,others