Formula,Tc,Materials_family
Dy1.2Mo6S8,1.856667,others
H0.81Pd1,1.855,others
Re1Al6,1.85,others
Au0.25Te0.75,1.85,others
Bi3Ca1,1.85,others
Zr2Fe0.5Ni0.5,1.85,others
Y0.3La0.7,1.85,others
La2Rh3Sn5,1.85,heavy-Fermion
Li1Cu2P2,1.85,others
U0.9Mo0.1,1.85,others
U0.74Nb0.26,1.85,others
Pb3Sr1,1.85,others
Pd0.87Te2,1.85,others
Pd1Te2.3,1.85,others
In0.027Sn0.961Te1,1.85,others
K1Fe1.932Co0.068As2,1.845,iron-based
Re0.9724Os0.0276,1.844,others
Ce0.916Yb0.084Co1In5,1.84,heavy-Fermion
La0.035Ce0.965Co1In5,1.84,heavy-Fermion
Nb0.65Pd0.35,1.84,others
Nb0.69Pd0.31,1.84,others
Os0.4Nb0.6,1.84,others
Re0.9725Os0.0275,1.84,others
W0.006Re0.994,1.84,others
Cr1As1,1.838,others
Pt2Ba1Sb2,1.835,others
La7Ru3,1.835,heavy-Fermion
Er1Ir3.6Rh0.4B4,1.83,heavy-Fermion
Y0.33Re0.67,1.83,others
Y1Re2,1.83,others
Ag0.1Sn0.87Te1,1.83,others
As1,1.825,others
V0.892Al0.108,1.82,others
Ce1Co1Zn0.25In4.75,1.82,heavy-Fermion
Ce1Ir5,1.82,heavy-Fermion
Ta1Cu0.12S2,1.82,others
Pd0.11Ti1Se2,1.82,others
Ta0.5Mo1.5B1,1.815,others
Th7Co3,1.815,heavy-Fermion
La0.05Pr0.95Os4Sb12,1.815,heavy-Fermion
Ir0.49Mo0.51,1.81,others
Re0.98Os0.02,1.807,others
Ta1Bi1.09Se3.09,1.8,others
Ta2Bi1.09Se5.09,1.8,others
Bi1Cu1,1.8,others
Ir2Mo3C1,1.8,others
Mo6Cd1S8,1.8,others
Ce1Ru0.4Co0.6In5,1.8,heavy-Fermion
Cu1Se1Te1,1.8,others
Ir3Te8,1.8,others
Lu4Os6Sn19,1.8,heavy-Fermion
Mg1Ni3C0.69,1.8,others
Mo0.025Ti0.975,1.8,others
Mo6S8,1.8,others
La0.02Pr0.98Os4Sb12,1.8,heavy-Fermion
Pr1Ru4P12,1.8,heavy-Fermion
Rb0.5Nb1S2,1.8,others
Zr0.05Rh0.91Ti0.04,1.8,others
Sm1.85Th0.15Cu1O3.98,1.8,cuprate
In0.065Sn0.923Te1,1.8,others
In0.061Sn0.927Te1,1.8,others
Zr0.504Ti0.496,1.8,others
Tm2Rh3Sn5,1.8,heavy-Fermion
Y1B2C2,1.8,others
Au0.05Zr0.95,1.79,others
Au0.85Pd0.15Ga2,1.79,others
Re0.887Os0.113,1.79,others
Re0.885Os0.115,1.79,others
Rh0.025Ti0.975,1.79,others
Pb0.0475In0.05Sn0.9025Te1,1.79,others
Th1Ru3B2,1.79,heavy-Fermion
Ce0.9Yb0.1Co1In5,1.78,heavy-Fermion
Ce1Co1Zn0.35In7.65,1.78,heavy-Fermion
Dy1Ir0.8Rh3.2B4,1.78,heavy-Fermion
Zr2Fe0.4Ni0.6,1.78,others
Os2Nb3,1.78,others
Tl1Pb1Pd1,1.78,others
Rh0.01Ti0.99,1.78,others
Au1Be1,1.775,others
Au0.93Pd0.07Ga2,1.773,others
Au2Bi1,1.77,others
Ce1Ru0.5Co0.5In5,1.77,heavy-Fermion
Pd1.05Te2,1.77,others
Ce0.2Pr0.8Pt4Ge12,1.767,heavy-Fermion
Ir1.6Pt0.4Cu1Se4,1.76,others
Re0.994Os0.006,1.76,others
Pt0.22V0.78,1.76,others
Pb0.0002In0.12Sn0.8798Te1,1.76,others
In0.084Sn0.904Te1,1.76,others
Y2Re3Si5,1.76,others
Al0.33Ge0.67,1.75,others
Al1Ge2,1.75,others
Au0.95Pd0.5Ga2,1.75,others
Pb3Ba0.1Sr0.9,1.75,others
In0.1Sn0.9Te1.01,1.75,others
La1Tl1.5Pb1.5,1.75,heavy-Fermion
La1C2,1.7475,others
Nb3Te4,1.746667,others
In0.099Sn0.901Te1,1.746,others
Ba1Cu0.6Si1.4,1.74,others
Pt1Ga1,1.74,others
W1K0.4O3,1.74,others
La0.6Hf0.4Bi1O1S2,1.74,others
La0.7Hf0.3Bi1O1S2,1.74,others
Zr3Sb2,1.74,others
In0.05Ge0.0285Sn0.9215Te1,1.74,others
V0.88Al0.12,1.73,others
Ce1Rh0.13Co0.87In5,1.73,heavy-Fermion
Ir2Cu0.4Zn0.6S4,1.73,others
La0.91Nd0.09Pt1Si1,1.73,heavy-Fermion
Pr0.9Nd0.1Os4Sb12,1.73,heavy-Fermion
Ag0.07Sn0.9Te1,1.73,others
W1Ba0.14O3,1.725,others
W0.001Re0.999,1.723,others
La0.2Pr0.8Os4Sb12,1.7225,heavy-Fermion
Au0.24Te0.76,1.72,others
Hf2Rh1,1.72,others
H0.75Pd0.985Ni0.015,1.72,others
In0.05Ge0.0475Sn0.9025Te1,1.72,others
Os1Zr1Si1,1.72,others
Au0.16Te0.84,1.71,others
Ir0.37V0.67,1.71,others
Re0.999Os0.001,1.71,others
Re0.998Os0.002,1.71,others
Tl0.0125Pb0.975Na0.0125Te1,1.71,others
Pt0.05Pd0.95Te2,1.71,others
Pr1Pt4Ge10.5Sb1.5,1.71,heavy-Fermion
Sc1Re2,1.71,others
La0.96Nd0.04,1.705,others
Mg0.4Al0.6,1.7,others
Au0.14Te0.86,1.7,others
Pb0.8Ba1Sb0.2O3,1.7,others
Ta1.5Be2Nb1.5,1.7,others
Hg5Ca1,1.7,others
Ir4Ca3Ge13,1.7,others
Ir4Ca3Ge4,1.7,others
Hg0.7Cd0.3,1.7,others
Cd0.9Ge0.1,1.7,others
U1Co1,1.7,heavy-Fermion
Hf0.05Rh0.04Ti0.91,1.7,others
Hf0.875Re0.125,1.7,others
Hg3Li1,1.7,others
Ho1.2Mo6S8,1.7,others
Re0.3Ir0.7,1.7,others
Re0.02Ir0.98,1.7,others
K0.5Nb1S2,1.7,others
Lu1Re2,1.7,heavy-Fermion
Mo0.77Si0.23,1.7,others
Pb3.9Bi6Ag1.1Se14,1.7,others
La0.1Pr0.9Os4Sb12,1.7,heavy-Fermion
Y1Pt2.2,1.7,others
Pb2Rh0.5Pd0.5,1.7,others
Sn0.25Te0.75,1.7,others
Re0.9994Mo0.0006,1.697,others
Re0.9993Mo0.0007,1.694,others
Ce1Co0.925Ni0.075In5,1.69,heavy-Fermion
Os0.5Ir0.5,1.69,others
La0.05Ce0.95Co1In5,1.68,heavy-Fermion
Y1Ga2,1.68,others
Hf1Zr1C1,1.68,others
Pb0.196In0.02Sn0.784Te1,1.68,others
W3O1,1.675,others
Ir1Ti1Si1,1.675,others
Tm1Ir4B4,1.675,heavy-Fermion
H0.54Nb0.65Pd0.35,1.67,others
La0.9989Ce0.0011Rh3B2,1.67,heavy-Fermion
La1Pt1.9Ge2.1,1.67,heavy-Fermion
Re0.768Os0.232,1.67,others
Pd0.51Sb0.49,1.67,others
Mo0.00255Pd0.50745Sb0.49,1.67,others
Sc1.2Ru2,1.67,others
Au0.328Ga0.672,1.668,others
Rh1C1,1.666667,others
La0.8Bi1Zr0.2O1S2,1.66,others
Mo0.2Ru0.8,1.66,others
Pd0.26Ti0.74,1.66,others
Ag0.05Sn0.92Te1,1.66,others
U1Be12.9701B0.0299,1.66,heavy-Fermion
Er0.003Al0.997,1.658,others
La1Rh2Si2,1.658,heavy-Fermion
V2Al20Ga0.2,1.655,others
La1Pt0.3Ni0.7Si1,1.655,heavy-Fermion
Pr1Os3.8Ru0.2Sb12,1.655,heavy-Fermion
In0.051Sn0.949Te1,1.653,others
Ce1Rh1In5,1.652222,heavy-Fermion
Sr1C6,1.65,others
Mo5Ge3,1.65,others
Y0.25La0.75Ni1C2,1.65,others
La1Ir3B2,1.65,heavy-Fermion
Pt0.1Pb0.9Te2,1.65,others
Pd0.52Sb0.48,1.65,others
Rh0.05Pd0.95Te2,1.65,others
Pt0.1Pd0.9Te2,1.65,others
Au1Sr1Si3,1.65,others
Tm0.9Lu0.1Fe3Si5,1.65,heavy-Fermion
Y1.6Lu0.4Fe3Si5,1.65,others
La0.35Ce0.65Ru2,1.647,heavy-Fermion
Au0.15Te0.85,1.64,others
Ir1.4Pt0.6Cu1Se4,1.64,others
H0.34Nb0.72Pd0.28,1.64,others
In0.05Ge0.076Sn0.874Te1,1.64,others
Y0.2Th0.8,1.64,others
U1Pd2Al2.97Ga0.03,1.64,heavy-Fermion
Y1Ir2,1.635,others
Au0.293Ga0.707,1.63,others
Ta2C1,1.63,others
Dy1Ir2.8Rh1.2B4,1.63,heavy-Fermion
Pd2.2S1,1.63,others
Pd2.8S1,1.63,others
Y0.25Th0.75,1.63,others
Ba6Nb10O30,1.625,others
Cu1S1Se1,1.625,others
Au3Te5,1.62,others
Hg2Na1,1.62,others
La1Rh5,1.62,heavy-Fermion
Rh0.03Ti0.97,1.62,others
Au0.278Ga0.722,1.615,others
Tb1.2Mo6S8,1.613333,others
Zr0.5Ti0.5,1.6125,others
Y3Ir2,1.61,others
La0.95Gd0.05Ru2,1.61,heavy-Fermion
La0.992Tb0.008Al2,1.61,heavy-Fermion
Pb0.3325In0.05Sn0.6175Te1,1.61,others
Tl0.005Pb0.99Na0.005Te1,1.61,others
Pd1Te2,1.61,others
Pd0.50745Ti0.00255Sb0.49,1.61,others
In0.05Ge0.0095Sn0.9405Te1,1.61,others
La0.98Tb0.01066Lu0.00934,1.608,others
La0.98Tb0.01123Lu0.00877,1.602,others
Pr1Os4Sb12,1.60125,heavy-Fermion
U1Al2Ge2,1.6,heavy-Fermion
Hg1Ca1,1.6,others
Hg3Ca1,1.6,others
Y0.99Ce0.01,1.6,others
La0.1Ce0.9Rh1In5,1.6,heavy-Fermion
Ce1Rh0.5Co0.5In5,1.6,heavy-Fermion
Co1.9Cu0.9S4,1.6,others
Dy1Mo6S8,1.6,others
Y0.1Er0.9Pd2Sn1,1.6,heavy-Fermion
Re0.98Fe0.02,1.6,others
Gd1Mo6S8,1.6,others
Ho1Ru1.6Rh2.4B4,1.6,heavy-Fermion
Ir0.04Ti0.96,1.6,others
Ir0.33V0.67,1.6,others
La1Si2,1.6,heavy-Fermion
La5Si3,1.6,heavy-Fermion
U6Mn0.33Ni0.67,1.6,heavy-Fermion
Au1Nb1.71V1.29,1.6,others
Nd1Pt1.5Au0.6B2C1,1.6,heavy-Fermion
Sm1Ni1,1.6,heavy-Fermion
Nb0.00255Pd0.50745Sb0.49,1.6,others
Pr1H0.06Ni1As1O0.94,1.6,others
Pr1Os3.6Ru0.4Sb12,1.6,heavy-Fermion
Rh0.015Ti0.985,1.6,others
V0.943Sn0.057,1.6,others
Pt0.1Sr1Fe1.9As2,1.6,iron-based
Tm1Co0.24Ni1.88B2C1,1.6,heavy-Fermion
Y0.5La0.5B6,1.6,others
Y0.95Ce0.05B6,1.6,others
Os1B2,1.5975,others
Y2Fe3Si5,1.595,others
Au0.281Ga0.719,1.587,others
Au0.2Ga0.8,1.587,others
Cu1S1,1.585,others
Ta1Se1.2Te0.8,1.585,others
Au0.35Te0.65,1.58,others
La0.9847Eu0.0153,1.58,others
La3Ru2Sn13,1.58,heavy-Fermion
W0.44Pd0.56,1.58,others
Pd1Sb1,1.58,others
Pt1Tl2,1.58,others
Ta0.35Re0.65,1.58,others
Pt3Ca0.67B2,1.57,others
Ce1Rh0.2Co0.8In5,1.57,heavy-Fermion
La1Ge1.78,1.57,heavy-Fermion
Pd0.4975Co0.0025Sb0.5,1.57,others
Ru0.00255Pd0.50745Sb0.49,1.57,others
Tm5Rh3.6Co2.4Sn18,1.57,heavy-Fermion
Y1Pt2Si2,1.57,others
La1Tl3,1.566667,heavy-Fermion
Ce1Co1In4.94Sn0.06,1.565,heavy-Fermion
Au0.18Te0.82,1.56,others
Au0.976Pd0.024Ga2,1.56,others
Ta2B1,1.56,others
Ce1Rh0.29Co0.71In5,1.56,heavy-Fermion
Zr0.33Mo0.67,1.56,others
Pd0.4975Cu0.0025Sb0.5,1.56,others
Sc0.00255Pd0.50745Sb0.49,1.56,others
Al1N1,1.55,others
Cr1,1.55,others
Ge3Te4,1.55,others
In0.87Te1,1.55,others
Sc1Ir2,1.55,others
Sr1Si2,1.55,others
Lu1Ru2,1.545,heavy-Fermion
La0.4Pr0.6Os4Sb12,1.542,heavy-Fermion
Au0.22Te0.78,1.54,others
Nb1Ni2Ga1,1.54,others
Re0.7Os0.3,1.54,others
Pa0.75Zr0.25,1.54,others
Y1Te1,1.535,others
Ce1Bi1O1S2,1.533333,others
Cu1S2,1.5325,others
Ce1Ir1Si3,1.53,heavy-Fermion
V2Al20Ga0.05,1.53,others
V2Al20Ga0.15,1.53,others
V2Al20Ga0.1,1.53,others
Nb0.765Mo0.1Pd0.135,1.53,others
Pr1Os3.4Ru0.6Sb12,1.53,heavy-Fermion
Y0.35Th0.65,1.53,others
Y0.5Th0.5Ru3B2,1.53,others
La0.3Pr0.7Os4Sb12,1.528,heavy-Fermion
Zr1Rh1P1,1.525,others
Ce1Ir0.75Co0.25In5,1.52,heavy-Fermion
H0.12Nb0.8Pd0.2,1.52,others
Th7Ir3,1.52,heavy-Fermion
La1Pt1Si3,1.52,heavy-Fermion
Os0.01Zr0.99,1.52,others
Pr0.8Nd0.2Os4Sb12,1.52,heavy-Fermion
Y1Tl3,1.52,others
V2Al20Ga0.3,1.5175,others
Au0.098Pd0.02Ga2,1.51,others
Au0.98Pd0.02Ga2,1.51,others
Bi0.3Zn0.7,1.51,others
Bi0.3Zr0.7,1.51,others
Th7Os3,1.51,heavy-Fermion
Nd0.33Th0.67Ru2,1.51,heavy-Fermion
Y0.1Th0.9,1.51,others
Th1Ir2Ge2,1.51,heavy-Fermion
U1Pd2Al2.94Ga0.06,1.51,heavy-Fermion
Ag0.45Ge0.55,1.5,others
H1Ag7O8F2,1.5,others
Mg0.61Al0.39,1.5,others
Fe0.001Al0.999,1.5,others
B105,1.5,others
Ir1Be5,1.5,others
Bi4Sr4Ca0.5Tm1.5Cu4O16.91,1.5,cuprate
Ce1Rh0.6Co0.4In5,1.5,heavy-Fermion
U6Mo0.04Co0.96,1.5,heavy-Fermion
Ti1Cu0.044Se2,1.5,others
Eu1Th3.4Ru0.6B4,1.5,heavy-Fermion
Fe1Te1,1.5,iron-based
Mo15In2Se19,1.5,others
La0.9989Ce0.0011Pt1Si1,1.5,heavy-Fermion
La1.84Ce0.16Cu1O4,1.5,cuprate
La1Ir2Ge2,1.5,heavy-Fermion
La1Pt3P1,1.5,heavy-Fermion
La1Tl1.5Sn1.5,1.5,heavy-Fermion
Yb0.07Lu4.93Ir4Si10,1.5,heavy-Fermion
Lu4Co6Sn19,1.5,heavy-Fermion
Zr1N0.906,1.5,others
Nb0.025Ti0.975,1.5,others
W0.1Nb0.72Pd0.18,1.5,others
Zr0.9Ni0.1,1.5,others
W0.9Os0.1,1.5,others
Pd0.4975Ni0.0025Sb0.5,1.5,others
Zr5Sb3,1.5,others
Sc4Os6Sn19,1.5,others
Sr1Pd1Ge3,1.5,others
Sr2Ru1O4,1.5,others
Tc0.1V0.9,1.5,others
V2Al20.3,1.49,others
V20Al20.3,1.49,others
La2.4Pr0.6Se4,1.49,others
H0.86Pd0.95Ni0.05,1.49,others
Pr1Os3.2Ru0.8Sb12,1.49,heavy-Fermion
Ta0.9Re0.1,1.49,others
Ti1.38V1.62Sb1,1.49,others
Y1In1.71Sn1.29,1.49,others
Au0.2Te0.8,1.48,others
Be0.9Ni0.1,1.48,others
V0.97Co0.03,1.48,others
La0.1Th0.9,1.48,others
La1Te1,1.48,others
La7Pd3,1.48,heavy-Fermion
Pd0.5Sb0.5,1.48,others
Pr0.75Nd0.25Os4Sb12,1.48,heavy-Fermion
Y3Rh2,1.48,others
In0.05Ge0.095Sn0.855Te1,1.48,others
Tm1Ir3.6Rh0.4B4,1.48,heavy-Fermion
Ba24Si100,1.475,others
La1Ir1Si3,1.473333,heavy-Fermion
Pd0.75Ni0.25As1,1.47,others
Be0.95Ru0.05,1.47,others
Be17Nb2,1.47,others
U2Pt1C2,1.47,others
La0.76Ce0.24Ru2,1.468,heavy-Fermion
V0.781Cr0.088Al0.131,1.46,others
La0.76Th0.24Pb3,1.46,heavy-Fermion
Pd0.509745Mn0.000255Sb0.49,1.46,others
Ta0.36Re0.64,1.46,others
V0.81Cr0.09Al0.1,1.46,others
La3Ce0.0165Al1,1.45,heavy-Fermion
Pt1Bi1Se1,1.45,others
In0.08Sn0.92Te1.01,1.45,others
Nb0.72Mo0.1Pd0.18,1.45,others
W0.5Pt0.5,1.45,others
Th1Ir1.2Ru0.8,1.45,heavy-Fermion
D0.77Pd1,1.449,others
H0.827Pd1,1.449,others
T0.734Pd1,1.449,others
Ta1Se1Te1,1.445,others
La1Pd2Ge1.92Sn0.08,1.44,heavy-Fermion
Pd0.49Sb0.51,1.44,others
La0.92Er0.08,1.435,others
Er1.2Mo6S8,1.433333,others
La1Pt2Si2,1.4325,heavy-Fermion
Ce1Rh0.4Co0.6In5,1.43,heavy-Fermion
In0.05Sn0.95Te1.01,1.43,others
Hg1Rb1C8,1.43,others
Sn1Sb1,1.43,others
Ir0.98Pt0.02Te2,1.4275,others
Eu3Bi2S4F4,1.425,others
Mo6In2Se6,1.425,others
La0.9911Tb0.0089Al2,1.425,heavy-Fermion
C1Si1,1.425,others
La0.75Ce0.25Ru2,1.42,heavy-Fermion
Ce1Rh0.3Co0.7In5,1.42,heavy-Fermion
La0.9Nd0.1Pt1Si1,1.42,heavy-Fermion
Ce0.85Nd0.4Co1In5,1.42,heavy-Fermion
In0.16Ge0.252Sn0.588Te1,1.42,others
Sb1,1.416667,others
Sr1Ni2P2,1.415,others
Ce1Co0.875Ni0.125In5,1.41,heavy-Fermion
Zr0.78Mn0.025Ni0.195,1.41,others
U2Pt0.95Rh0.05C2,1.41,others
Ir1Nb3,1.4075,others
Mo3Si1,1.402,others
B0.039C0.961Si1,1.4,others
Pb0.85Ba1Sb0.15O3,1.4,others
Br2,1.4,others
W1Ca0.1O3,1.4,others
Ce0.837Yb0.163Co1In5,1.4,heavy-Fermion
Ti1Cu0.05Se2,1.4,others
K1Cu4S3,1.4,others
U6Fe0.75Ni0.25,1.4,heavy-Fermion
Gd1.2Mo6S8,1.4,others
Pt0.5Ge0.5,1.4,others
U7Ge1,1.4,heavy-Fermion
Ho1Os1.2Sn2.5,1.4,heavy-Fermion
Ho4Os6Sn19,1.4,heavy-Fermion
In4Sb1Te3,1.4,others
La3Pd5Si1,1.4,heavy-Fermion
Pd0.95Ni0.05Te2,1.4,others
Tl0.015Pb0.985Te1,1.4,others
Y0.8Dy0.2Pd2Sn1,1.4,others
Pr1Pt4Ge8Sb4,1.4,heavy-Fermion
Pr1Pt4Ge9Sb3,1.4,heavy-Fermion
Ta0.4Re0.6,1.4,others
Y0.05Rh0.91Ti0.04,1.4,others
Sc4Ir6Ge19,1.4,others
W1Sr0.2Se2,1.4,others
Tb1Os1.5Sn2.6,1.4,heavy-Fermion
Tb4Os6Sn19,1.4,heavy-Fermion
Y0.05Th0.95,1.4,others
Ti0.975V0.025,1.4,others
Y1Os1B4,1.4,others
Y1Rh2Si2,1.4,others
Y1Ru4B4,1.4,others
Zr2Co0.15Ni0.85,1.4,others
Bi1Ag1,1.39,others
Pd0.44Ni0.06As0.5,1.39,others
Pd0.88Ni0.12As1,1.39,others
Ir0.33V2.67,1.39,others
Ir1V2,1.39,others
Tm2Fe3Si5,1.3825,heavy-Fermion
Ba1Ni2Ge0.8P1.2,1.38,others
Ce1Rh0.23Co0.77In5,1.38,heavy-Fermion
Ce1Rh0.35Co0.65In5,1.38,heavy-Fermion
La0.987Tb0.013,1.38,others
La0.996Gd0.004Al2,1.38,heavy-Fermion
Nb1O1,1.38,others
Tl0.005Pb0.985Na0.01Te1,1.38,others
Tl0.014Pb0.986Te1,1.38,others
Y1Ru1B4,1.38,others
Au0.427Ga0.573,1.378,others
Eu1,1.375,others
Be2Rh1,1.37,others
Ca1Si2.2,1.37,others
La1Tl2.19Pb0.81,1.37,heavy-Fermion
Zr0.35Ti0.65,1.37,others
U6Co0.5Ni0.5,1.37,others
Au1Te2,1.366667,others
V0.75Cr0.25,1.36,others
Ir2Cu0.3Zn0.7S4,1.36,others
Er1Rh1.1Sn3.6,1.36,heavy-Fermion
In0.06Sn0.94Te1.01,1.36,others
Pt1V2.5,1.36,others
Ta0.78W0.22,1.36,others
Zr0.7Ti0.3,1.36,others
Zr0.33Ti0.66,1.36,others
Au0.388Ga0.612,1.355,others
In0.08Sn0.92Te1,1.355,others
Au1Ge1,1.35,others
B0.978C0.022Si1,1.35,others
Be2Ru1,1.35,others
Ca1Si1.9,1.35,others
Ce1Cd0.5Co1In4.5,1.35,heavy-Fermion
Nb5Ga3,1.35,others
Re0.638Os0.362,1.35,others
Tl0.0125Pb0.9875Te1,1.35,others
Pd0.5099745Cr0.0000255Sb0.49,1.35,others
W0.48Pt0.52,1.35,others
Zr1Rh1,1.35,others
Zr0.66Ti0.33,1.35,others
Y5Rh4Ge10,1.35,others
Zr0.55Ni0.05Cu0.3Al0.1,1.35,others
U1Al2Si2,1.34,heavy-Fermion
W1K0.42O3,1.34,others
La0.8Pr0.2Pb3,1.34,heavy-Fermion
Nb0.608Mo0.2Pd0.192,1.34,others
Mo0.59Si0.41,1.34,others
Mo1Si0.7,1.34,others
Sc1Os1B2,1.34,others
Ru0.2Rh0.8Se2,1.33,others
Ce1Cu2Ge2,1.32,heavy-Fermion
La1.14Nb1Se3.14,1.32,others
Tl0.013Pb0.987Te1,1.32,others
Pb1.9Rh1,1.32,others
Tl2Pd1,1.32,others
Er4Rh6Sn19,1.32,heavy-Fermion
Ru1Ti1P1,1.315,others
La0.075Ce0.925Co1In5,1.31,heavy-Fermion
Re0.2Cr0.8,1.31,others
Hg1Cd1,1.306667,others
Co1Si2,1.306667,others
Nb3Al2N1,1.3,others
Au0.374Te0.626,1.3,others
Be13Ru1,1.3,others
Pd1C0.6,1.3,others
W1Re0.01C1,1.3,others
Pt3Ca2Si5,1.3,others
Cd0.04Cu0.96S2,1.3,others
Cd0.06Cu0.94Se2,1.3,others
Ce1Bi1Pd1,1.3,heavy-Fermion
Ru0.5Cr0.5,1.3,others
Cu1Te2,1.3,others
Er1Os1.1Sn2.7,1.3,heavy-Fermion
Sc1Ge2,1.3,others
La0.2Ho0.8Ni2B2C1,1.3,heavy-Fermion
K2Mo15In1Se19,1.3,others
La0.05Th0.95,1.3,others
La0.4Ce0.6Ru2,1.3,heavy-Fermion
La1Pd2Sb2,1.3,heavy-Fermion
La1Pt2Ge1.8Sn0.2,1.3,heavy-Fermion
Mo3Si1.3,1.3,others
Na0.5Nb1S2,1.3,others
Pd0.9Ni0.1Te2,1.3,others
Sc0.05Rh0.04Ti0.91,1.3,others
Yb1Sb2,1.3,heavy-Fermion
Sr1Ga1Ge1,1.3,others
Ta0.025Ti0.975,1.3,others
Y1Rh1.1Sn3.1,1.3,others
Y4Ru6Sn19,1.3,others
Rh0.005Ti0.995,1.295,others
Li0.1Al0.9,1.29,others
Dy1Ir3.44Rh0.56B4,1.29,heavy-Fermion
Y0.4La0.6,1.29,others
W0.4Pd0.6,1.29,others
Th0.1U0.9Pd2Al3,1.28,heavy-Fermion
La0.72Ce0.28Ru2,1.278,heavy-Fermion
Am1,1.2775,others
La1Pt0.1Ni0.9Si1,1.275,heavy-Fermion
In0.05Sn0.95Te1,1.273333,others
Ca1Pd2As2,1.27,others
La0.9795Sm0.0205,1.27,others
Lu0.275Rh0.725,1.27,others
Pr0.7Nd0.3Os4Sb12,1.27,heavy-Fermion
Pr1Pt4Ge10Sb2,1.27,heavy-Fermion
Ru0.4Rh0.6P1,1.27,others
Tm5Rh2.4Co3.6Sn18,1.27,heavy-Fermion
Rh1.7Cu1Sn0.3Se4,1.26,others
Y0.05Er0.95Pd2Sn1,1.26,heavy-Fermion
Zr2Fe0.5Co0.5,1.26,others
Ho1Ir3.2Rh0.8B4,1.26,heavy-Fermion
Y0.2La0.8Ni1C2,1.26,others
Pt1V3.5,1.26,others
Al1,1.254033,others
Au0.988Pd0.012Ga2,1.25,others
Au1Sn1,1.25,others
Ce0.65Pr0.35Ru2,1.25,heavy-Fermion
Ce1Ru3Si2,1.25,heavy-Fermion
Er4Os6Sn19,1.25,heavy-Fermion
La1Pd2Ge1.9Sn0.1,1.25,heavy-Fermion
Pd1Sb2,1.25,others
Sc4Ir6Sn19,1.25,others
Sr1Pd2Sb2,1.25,others
W0.9Tc0.1,1.25,others
Y0.5Th0.5,1.25,others
U0.89Mo0.11,1.25,others
La0.98Tb0.01185Lu0.00815,1.248,others
Au1Zn3,1.245,others
Y1Au0.2Pd1.8In1,1.24,others
Er1Bi1Pd1,1.24,heavy-Fermion
La2.25Pr0.75Tl1,1.24,heavy-Fermion
Pt1Nb1Si1,1.24,others
Sn4P3,1.24,others
U1Ru2Si2,1.231538,heavy-Fermion
La1Ni1Si1,1.23,heavy-Fermion
Pd0.459Ni0.051Sb0.49,1.23,others
Ta0.7Pt0.3,1.225,others
La0.1Ce0.9Co1In5,1.22,heavy-Fermion
Ce1Co1In4.92Sn0.08,1.22,heavy-Fermion
Nb0.68Mo0.15Pd0.17,1.22,others
Rh1P1,1.22,others
Tl0.01Pb0.99Te1,1.22,others
Pd0.5093625Fe0.0006375Sb0.49,1.22,others
In0.04Sn0.96Te1,1.22,others
Ba1Ag0.5Si1.5,1.21,others
Pt1Bi0.1Sb0.9,1.21,others
Pt1Bi1,1.21,others
La0.97Ce0.03,1.21,others
Ag0.1In0.9Te1,1.2,others
Pb1Al1,1.2,others
Au1Ga1,1.2,others
Bi1Pd1Te1,1.2,others
W3Pt2C1,1.2,others
Ce1Ir0.7Rh0.3In5,1.2,heavy-Fermion
Ce1Rh1In4.84Sn0.16,1.2,heavy-Fermion
Ru0.875Cr0.125,1.2,others
Cu0.7Sn0.3,1.2,others
Mo1Ge0.7,1.2,others
Hg2K1,1.2,others
La0.9578Ho0.0422,1.2,others
I2,1.2,others
In0.045Sn0.955Te1.01,1.2,others
In3Te4,1.2,others
La1.85Sr0.15Cu0.9725Zn0.0275O4,1.2,cuprate
Lu1B2C2,1.2,heavy-Fermion
Ti0.99Mn0.01,1.2,others
U0.944Mo0.006,1.2,others
Nb0.97Cr0.03N1,1.2,others
Nb0.99Cr0.01N1,1.2,others
Nb2Pd0.67Se5,1.2,others
Th2Pd0.5Ag0.5,1.2,others
Pd1Sb1Te1,1.2,others
Ta1Se1.5Te0.5,1.2,others
Ta1Se1.6Te0.4,1.2,others
La0.3U0.7Pd2Al3,1.2,heavy-Fermion
La0.15U0.85Pd2Al3,1.2,heavy-Fermion
U1Pd1.98Al3,1.2,heavy-Fermion
La1Ir2Si2,1.198333,heavy-Fermion
Sn4As3,1.195,others
Ce0.5Yb0.5Co1In5,1.19,others
Ce0.85Yb0.15Co1In5,1.19,heavy-Fermion
La1In1.5Sn1.5,1.19,heavy-Fermion
La1Tl0.75Sn2.25,1.19,heavy-Fermion
Pt1Sn4,1.19,others
V0.8Cr0.2,1.186667,others
Th0.99975U0.025,1.182,others
Ir1Te3,1.18,others
La1Pb1.5Sn1.5,1.18,heavy-Fermion
Re0.568Os0.432,1.18,others
Y0.2Rh0.8,1.18,others
La1N1,1.175,heavy-Fermion
Zr0.6Cu0.4,1.173333,others
La0.6Pr0.4Os4Sb12,1.172,heavy-Fermion
Au0.499Ga0.501,1.17,others
Dy1Ir3.2Rh0.8B4,1.17,heavy-Fermion
Er1Pd2Sn1,1.17,heavy-Fermion
Ga0.58Sb0.42,1.17,others
Ti1N0.6,1.17,others
Nb2Pd1S3Se2,1.17,others
Yb1Pd2Ge2,1.17,heavy-Fermion
Ta1Se0.8Te1.2,1.165,others
Th1,1.161429,others
La0.967Pr0.033Tl3,1.16,heavy-Fermion
Tl0.011Pb0.989Te1,1.16,others
Pr1Os0.2Ru3.8Sb12,1.16,heavy-Fermion
Pr1Os2.4Ru1.6Sb12,1.16,heavy-Fermion
Gd0.01U0.99Pd2Al3,1.16,heavy-Fermion
U1Ni2Al2.98,1.155,heavy-Fermion
Pd2As1,1.15,others
Pt1Bi1Te1,1.15,others
Hf1Rh1Si1,1.15,others
In0.83Te1,1.15,others
U1Pd2Al2.85Ga0.15,1.15,heavy-Fermion
U0.98Ni2Al3,1.145,heavy-Fermion
Zr0.784Mn0.02Cu0.196,1.14,others
In0.04Sn0.96Te1.01,1.14,others
U1Ni2.02Al3,1.14,heavy-Fermion
U1Ni2Al3.02,1.135,heavy-Fermion
Zn0.008Al0.992,1.132,others
Pb3Ag2S1,1.13,others
Pd3Ag2S1,1.13,others
Li0.05Al0.95,1.13,others
Pd0.4975V0.0025Sb0.5,1.13,others
Ru0.7Rh0.3P1,1.13,others
In0.025Sn0.975Te1,1.13,others
Sr2Ru0.9995Ti0.0005O4,1.13,others
U1Ni1.98Al3,1.13,heavy-Fermion
Ag0.002Al0.998,1.128,others
W1Cs0.32O3,1.12,others
Hf1Ni2Ga1,1.12,others
Ir1V2B2,1.12,others
Ce1Co2,1.1125,heavy-Fermion
Ba1Pd0.4Si1.6,1.11,others
Be0.89Cu0.11,1.11,others
Gd0.001Th0.999,1.11,others
La1Pb2.25Sn0.75,1.11,heavy-Fermion
Y0.01U0.99Pd2Al3,1.11,heavy-Fermion
Re2Cd2O7,1.102857,others
Bi2Rh1,1.1,others
Pt2Mo3C1,1.1,others
Rh0.3Cr0.7,1.1,others
W1K0.1Li0.02O2.88F0.12,1.1,others
Lu1S1,1.1,others
Nb3Sb1,1.1,others
Pd17Se15,1.1,others
Th1Os2Ge2,1.1,heavy-Fermion
Th1Os2Si2,1.1,heavy-Fermion
Th1Pd2Ge2,1.1,heavy-Fermion
Th1Pd2Si2,1.1,heavy-Fermion
Th1Pt2Ge2,1.1,heavy-Fermion
Th1Pt2Si2,1.1,heavy-Fermion
Th1Rh2Ge2,1.1,heavy-Fermion
Th1Rh2Si2,1.1,heavy-Fermion
Th1Ru2Ge2,1.1,heavy-Fermion
Th1Ru2Si2,1.1,heavy-Fermion
Tm4Os6Sn19,1.1,heavy-Fermion
U1Ir2Ge2,1.1,heavy-Fermion
U1Ir2Si2,1.1,heavy-Fermion
U1Rh2Ge2,1.1,heavy-Fermion
U1Rh2Si2,1.1,heavy-Fermion
Y1Os2Si2,1.1,others
Y1Ru2Si2,1.1,others
Zr8Ni2.5Cu1.5,1.09,others
In0.05Ge0.1425Sn0.8075Te1,1.09,others
U2Pt0.9Rh0.1C2,1.09,others
W2Zr1,1.08,others
Nb1Ni2Al1,1.075,others
Pb4Bi6Ag1Se14,1.075,others
Rh0.35V0.65,1.075,others
La1Ag1,1.073333,heavy-Fermion
Li0.01Al0.99,1.07,others
In0.03Sn0.97Te1.01,1.07,others
La0.9978Ce0.0022Rh3B2,1.07,heavy-Fermion
Y1Rh3,1.07,others
Th1Rh5,1.07,heavy-Fermion
Ru1Ti1,1.07,others