Formula,Tc,Materials_family
Th7Fe1.86Co1.14,1.07,heavy-Fermion
Tm0.091Th0.909,1.07,others
Au1Ga2,1.062,others
Ir1.8Pt0.2Cu1Se4,1.06,others
In2Sb1Te2,1.06,others
Li0.03Al0.97,1.05,others
La1.85Sr0.15Cu0.97Zn0.03O4,1.05,cuprate
La1Mg2,1.05,heavy-Fermion
La1Tl2.25Sn0.75,1.05,heavy-Fermion
Pr1Os2.8Ru1.2Sb12,1.05,heavy-Fermion
Th7Fe2.43Ni0.57,1.05,heavy-Fermion
Ce1Ir1In4.996Sn0.004,1.043,heavy-Fermion
Ag7N0.75O10.25F0.25,1.04,others
Ag7N1O11,1.04,others
In0.82Te1,1.04,others
La1Pd2Ge2,1.04,heavy-Fermion
La1Zn1,1.04,heavy-Fermion
Y1Pd2In1,1.04,others
Pr1Os0.4Ru3.6Sb12,1.04,heavy-Fermion
Ta0.8W0.2,1.04,others
Os0.33Cr0.67,1.03,others
Pd0.508725Fe0.001275Sb0.49,1.03,others
Th1In1.5Sn1.5,1.03,heavy-Fermion
Zr0.82Ti0.81,1.03,others
U1Ni2Al3,1.021,heavy-Fermion
Cu1Al2,1.02,others
Ce1Co1In4.9Sn0.1,1.02,heavy-Fermion
La1Se1,1.02,others
In0.044Sn0.956Te1,1.017,others
Ce0.25Pr0.75Pt4Ge12,1.015,heavy-Fermion
Th0.9995U0.05,1.014,others
Pr0.55Nd0.45Os4Sb12,1.01,heavy-Fermion
Zr0.8Ti0.2,1.01,others
Ba1Rh2P2,1,others
Ta3Be2,1,others
Bi1Pd1Se1,1,others
Bi3Fe1,1,others
Ca1Pd3B1.25,1,others
Re2Cd2O7.1,1,others
Rh2Co0.02Cu0.98S4,1,others
Zr0.9Fe0.1,1,others
Fe1,1,others
U0.857Fe0.143,1,heavy-Fermion
Hf0.34Mo0.66,1,others
Ca2K1Nb3O10,1,others
Y0.52La0.48,1,others
La1.9Sr0.1Cu0.98Zn0.02O4,1,cuprate
La1Fe0.951Zn0.049As1O0.68F0.28,1,iron-based
La1Ni1Sb2,1,heavy-Fermion
Lu1Pt1Bi1,1,heavy-Fermion
Dy0.5Lu4.5Ir4Si10,1,heavy-Fermion
Ti1O1.07,1,others
Pd1Sb1Se1,1,others
Ta1Pt1,1,others
Ru0.4V0.6,1,others
Er4.41Rh6Sn18.59,1,heavy-Fermion
Pt1Sr1Ge3,1,others
Y1Pb1.5In1.5,1,others
Be0.225Zr0.412Ti0.138Ni0.1Cu0.125,1,others
Zr1,0.996667,others
Ce1Ir1Hg0.045In4.955,0.993,heavy-Fermion
U5Ge3,0.99,heavy-Fermion
Hg1Rb1C4,0.99,others
Y1Fe2Ge2,0.99,others
U1Be12.9558B0.0442,0.988,heavy-Fermion
La0.8Pr0.2Os4Sb12,0.9865,heavy-Fermion
Ba4Sr2Nb10O30,0.98,others
U0.78Fe0.22,0.98,heavy-Fermion
Y1.68Lu0.32Fe3Si5,0.98,others
La1Pd2As2,0.97,heavy-Fermion
U0.98Rh0.02,0.97,others
Er4.57Rh6Sn18.43,0.97,heavy-Fermion
Tm0.187Th0.813,0.97,others
Ba1Ti2Sb2O1,0.964,others
Ba5Sr1Nb10O30,0.96,others
Bi2Pd3Se2,0.96,others
Y1In3,0.96,others
Y1Pd2P2,0.96,others
Ce1Ir1Hg0.027In4.973,0.955,heavy-Fermion
Pr1Os0.6Ru3.4Sb12,0.955,heavy-Fermion
Tl0.01Pb0.985In0.005Te1,0.954,others
Ta1.75Zr0.25Co1,0.95,others
Ti1Cu0.045Se2,0.95,others
V6In0.63S8,0.95,others
La1Pt1.94Ge2.06,0.95,heavy-Fermion
Pr0.102Th0.898,0.95,others
Tm5Ir4Si10,0.95,heavy-Fermion
Pr1Ru4Sb12,0.945,heavy-Fermion
Yb1Al3,0.94,heavy-Fermion
Ce1Ir0.45Rh0.55In5,0.94,heavy-Fermion
La0.988Tb0.012Al2,0.94,heavy-Fermion
Nb0.64Mo0.2Pd0.16,0.94,others
Re0.44Os0.56,0.94,others
Eu0.9Mo6.35Sn0.12S8,0.94,others
In0.021Sn0.979Te1,0.936,others
Hg1Mg1,0.935,others
La0.995Gd0.005Al2,0.932,heavy-Fermion
Ir1Sn4,0.93,others
Pd1Si1,0.93,others
Pr1.85Ce0.15Cu0.99Ni0.01O4.065,0.93,cuprate
Mg1Zn1,0.925,others
Cu3Sb1,0.9205,others
Ce0.8Yb0.2Co1In5,0.92,heavy-Fermion
Ce1Ir0.25Rh0.75In5,0.92,heavy-Fermion
Zr4Sn1,0.92,others
Sr1Pd2As2,0.92,others
U1Be13,0.917755,heavy-Fermion
Ce1Rh1Si3,0.914,heavy-Fermion
Mo1,0.912667,others
Ce1Ir0.6Rh0.4In5,0.91,heavy-Fermion
Ta2Co0.5Ni0.5,0.91,others
Mo0.4Rh0.6,0.91,others
Pd0.50745V0.00255Sb0.49,0.91,others
La0.98Tb0.01246Lu0.00754,0.907,others
Y1Pt1Bi1,0.906667,others
W1As2,0.9,others
Au5Sn1,0.9,others
La1.85Sr0.15Cu0.977Ga0.023O4,0.9,cuprate
La1Pt1Bi1,0.9,heavy-Fermion
La1Cu1Sb2,0.9,heavy-Fermion
La1Os4P12,0.9,heavy-Fermion
Ta2Ni1,0.9,others
W0.925Os0.075,0.9,others
Y3Pt2,0.9,others
Y8Pt2,0.9,others
Sc0.76Rh0.24,0.9,others
Th0.9985U0.0015,0.9,others
Ti1Se2,0.9,others
Y1Rh1Al1,0.9,others
Ce1Ir0.987Pt0.013In5,0.897,heavy-Fermion
Pr0.6Nd0.4Os4Sb12,0.89,heavy-Fermion
W1K0.45O3,0.885,others
Sr1Ni2Ge2,0.8825,others
Ag0.167Al0.833,0.88,others
Be0.934Ni0.066,0.88,others
Ce1Co0.8Ni0.2In5,0.88,heavy-Fermion
Mg2Zn11,0.88,others
Pt1Si1,0.88,others
Bi3Te1,0.875,others
Ce1Ir0.5Rh0.5In5,0.875,heavy-Fermion
Bi3Zn1,0.87,others
Ce1Co1.95,0.87,heavy-Fermion
Ce1Co1In4.88Sn0.12,0.87,heavy-Fermion
U1Ga2Ge2,0.87,heavy-Fermion
Ir3Ge7,0.87,others
Hf2Ni1,0.87,others
Ce0.6Nd0.4Co1In5,0.87,heavy-Fermion
U0.98Pt0.02,0.87,others
Th1Tl3,0.87,heavy-Fermion
Hf1Rh1,0.865,others
La0.125Ce0.875Co1In5,0.86,heavy-Fermion
Ce1Co1.85,0.86,heavy-Fermion
Y6Nb4Al43,0.86,others
Mg2Al3,0.855,others
Zn1,0.8508,others
Ag4Ge1,0.85,others
Mg0.39Al0.61,0.85,others
In1As0.33Te0.67,0.85,others
Bi4Mg1,0.85,others
Ce1,0.85,others
Hf0.99Rh0.01,0.85,others
La1Pd2Al3,0.85,heavy-Fermion
Os0.3Nb3Rh0.7,0.85,others
Pd7P3,0.85,others
U0.983Pt0.017,0.85,others
Mg2Al2,0.84,others
Ba4Na2Ge25,0.84,others
Be0.92Cu0.08,0.84,others
Bi2Rh3Se2,0.84,others
Lu2Ir1,0.84,heavy-Fermion
La1S1,0.84,others
Pr1Os1Ru3Sb12,0.84,heavy-Fermion
Ir0.72Cr0.28,0.83,others
Ir0.28Cr0.72,0.83,others
La1Pt1.97Ge2.03,0.83,heavy-Fermion
U1Pd2.02Al3,0.83,heavy-Fermion
Ce1Ir0.55Rh0.45In5,0.82,heavy-Fermion
Ta2Co1,0.82,others
La1Pd2Ge1.96Sn0.04,0.82,heavy-Fermion
Y7Pt3,0.82,others
Tl0.01Pb0.982In0.008Te1,0.818,others
Ce2Rh1In8,0.8125,heavy-Fermion
Th0.999U0.001,0.808,others
La1Os4Sb12,0.80775,heavy-Fermion
Ce1Ir1Ge3,0.805,heavy-Fermion
Pr1Os1.2Ru2.8Sb12,0.805,heavy-Fermion
Pr1Os2Ru2Sb12,0.805,heavy-Fermion
Ru1B2,0.8,others
C6O2I4,0.8,others
Ca1Pd3B1.05,0.8,others
Ce1Ir1In4.986Sn0.014,0.8,heavy-Fermion
K1Ni2Se2,0.8,others
La0.75Pr0.25Pb3,0.8,heavy-Fermion
La0.93Pr0.07Tl3,0.8,heavy-Fermion
La1Sb2,0.8,heavy-Fermion
Ti1O0.95,0.8,others
Re0.3Os0.7,0.8,others
Sr1.7Ca0.3V1Fe1As1O3,0.8,iron-based
Ta3Al1,0.795,others
Sr1Ti1O3,0.79475,others
Bi2Ni3S2,0.79,others
Bi0.5Sn0.5,0.788,others
Ta1Se1.7Te0.3,0.785,others
Th1U0.001,0.785,others
Y1Pd2Si2,0.785,others
Ba1Ni2As2,0.783333,others
Th2Ag0.5Al0.5,0.78,others
Y1As0.25Se0.75,0.78,others
Cd0.002Zn0.998,0.78,others
La0.15Ce0.85Co1In5,0.78,heavy-Fermion
U0.857Co0.143,0.78,heavy-Fermion
Ir0.91Cr0.09,0.78,others
Ir1Zn2,0.78,others
Lu7Ir3,0.78,heavy-Fermion
Ce1Ir1In5,0.770429,heavy-Fermion
Ag0.2In0.8Te1,0.77,others
La3Ce0.017Al1,0.77,heavy-Fermion
Bi1Ba0.33K0.67O3,0.77,others
Ir0.165Cr0.835,0.77,others
Th0.9992U0.0008,0.77,others
Ag0.005Zn0.995,0.763,others
Ba1Ni2P0.098As1.902,0.763,others
Th0.998U0.002,0.761,others
Be0.96Ni0.04,0.76,others
Ta1Bi1.08S3.08,0.76,others
La2Bi1,0.76,heavy-Fermion
Ir0.3Cr0.7,0.76,others
Mo3Ga1,0.76,others
La2.25Pr0.75Se4,0.76,others
Mg2Zn3,0.76,others
Mo0.3V0.7,0.76,others
Pb1Zr3,0.76,others
Pd3Te1,0.76,others
Y0.58Pt0.42,0.76,others
V6S8,0.76,others
U1Pd2Al2.55Ga0.45,0.76,heavy-Fermion
Be1B2.75,0.755,others
Pr1Os1.6Ru2.4Sb12,0.755,heavy-Fermion
Rh1Te2,0.755,others
Th1Al3,0.75,heavy-Fermion
Tl1Al3,0.75,others
Ce1.01Pt3Si1,0.75,heavy-Fermion
Ce1Ir0.65Co0.35Si3,0.75,heavy-Fermion
U0.983Cr0.017,0.75,others
Ir0.18Cr0.82,0.75,others
Cs1,0.75,others
La0.001Rh0.99Fe0.01,0.75,others
La0.01Rh0.98Fe0.01,0.75,others
La1In2.25Sn0.75,0.75,heavy-Fermion
La1Pd2P2,0.75,heavy-Fermion
Th2Pd1,0.75,heavy-Fermion
Pr0.179Th0.821,0.75,others
Ta0.85Re0.15,0.75,others
Ru0.86Rh0.14As1,0.75,others
Th1Pt3B1,0.75,heavy-Fermion
Y6Mo4Al43,0.75,others
Ce0.83Nd0.4Co1In5,0.74,heavy-Fermion
Tl0.26V6S8,0.74,others
U0.94Mo0.06,0.74,others
Ce1Pd5Al2,0.735,heavy-Fermion
Ce1Ir0.978Pt0.022In5,0.734,heavy-Fermion
Ti0.898Al0.102,0.73,others
Zr3Al1,0.73,others
Bi2Ni3Se2,0.73,others
Os0.4Ir0.6,0.73,others
Re0.19Os0.81,0.73,others
Th0.05Zr0.95,0.73,others
La0.6Ce0.4Ru2,0.727,heavy-Fermion
Th0.999U0.1,0.725,others
Be1.09B3,0.72,others
Be21Ni5,0.72,others
Ce1Pt2.97Si1,0.72,heavy-Fermion
Ti1O0.92,0.72,others
Ti1O1,0.72,others
Ta3Sb1,0.72,others
Ir1Sn2,0.715,others
Gd0.002Th0.998,0.714,others
Mo0.9999Co0.0001,0.71,others
Ti1Co1,0.71,others
Mo0.94Cr0.06,0.71,others
K1V6S8,0.71,others
Pb0.38In0.05Sn0.57Te1,0.703,others
Ti0.947Al0.053,0.7,others
Mn0.00075Al0.99925,0.7,others
Bi1Mg1,0.7,others
Ce0.02Th0.98,0.7,others
Ce1Cu2.05Si2,0.7,heavy-Fermion
Ho1Rh4B4,0.7,heavy-Fermion
Pd1In1,0.7,others
La1In3,0.7,heavy-Fermion
La0.95Pr0.05Se1,0.7,others
Nd1Pt4Ge12,0.7,heavy-Fermion
Ti1O0.91,0.7,others
Re0.11Os0.89,0.7,others
Ce2Pd1In8,0.69,heavy-Fermion
Zr1Ga3,0.69,others
Zr1Ni2Al1,0.69,others
Pr1Pt4Ge9.5Sb2.5,0.69,heavy-Fermion
Th0.95Zr0.05,0.69,others
U0.95Pd0.05,0.69,others
U0.95Pt0.05,0.69,others
Y1In2.25Sn0.75,0.69,others
Y1V2Al20,0.69,others
Hg1K1C4,0.68125,others
Yb0.14Au0.64Ge0.22,0.68,heavy-Fermion
Ba1Ni2Ge1P1,0.68,others
Ru0.58Rh0.42As1,0.68,others
In0.05Ge0.19Sn0.76Te1,0.68,others
Y6Ta4Al43,0.68,others
Ce1Co1Ge3,0.676667,heavy-Fermion
Cd0.02Zn0.98,0.675,others
Th0.0066U0.9934Be13,0.67,heavy-Fermion
Ce1Ir0.8Rh0.2In5,0.67,heavy-Fermion
La1In0.75Sn2.25,0.67,heavy-Fermion
Lu1Pd2Si2,0.67,heavy-Fermion
Pd9Se2,0.67,others
Th2Zn1,0.67,heavy-Fermion
Tm0.298Th0.702,0.67,others
Ce1Pt3Si1,0.669222,heavy-Fermion
La0.46Ce0.54Ru2,0.668,heavy-Fermion
U1Co1Si0.02Ge0.98,0.667,heavy-Fermion
Os1Nb3,0.663333,others
Au0.23V0.77,0.66,others
Ce1Ir1In4.97Sn0.03,0.66,heavy-Fermion
Re0.2Ir0.8,0.66,others
Pd6.7Se1,0.66,others
Pd6Se1,0.66,others
Sr1Ni2As2,0.66,others
Th0.0089U0.9911Be13,0.66,heavy-Fermion
Th0.99873U0.127,0.658,others
Os1,0.650333,others
Ti0.971Al0.029,0.65,others
Cu1Al2.06,0.65,others
Th0.0101U0.9899Be13,0.65,heavy-Fermion
Fe3C1,0.65,others
Pb3Ca1,0.65,others
O2,0.65,others
Rh2P1,0.65,others
Rb1V6S8,0.65,others
Ta1Re1,0.65,others
Y3Rh1,0.65,others
V3Sb1,0.65,others
U0.97Mo0.03,0.65,others
Ce1Cu2Si2,0.6497,heavy-Fermion
Mo0.99992Fe0.00008,0.645,others
Hg0.562Ag0.438,0.64,others
La5Bi3,0.64,heavy-Fermion
Ce1Ir0.5Co0.5In5,0.64,heavy-Fermion
Pd3Sn2,0.64,others
Gd0.02U0.92Pd2Al3,0.64,heavy-Fermion
Ba1Ni2P0.028As1.972,0.634,others
La0.98Tb0.01303Lu0.00697,0.632,others
Ce1Pt3Si0.97Ge0.03,0.63,heavy-Fermion
Ce1Ir0.75Rh0.25In5,0.63,heavy-Fermion
Cd0.2Zn0.8,0.628,others
Th0.01U0.99Be13,0.624,heavy-Fermion
Ce1Cu1.95Si2.01,0.62,heavy-Fermion
Ce1Ir0.8Co0.2Si3,0.62,heavy-Fermion
Ce1Ir0.4Rh0.6In5,0.62,heavy-Fermion
Ru0.3Rh0.7Se2,0.62,others
La0.99Gd0.01,0.61,others
Re0.15Ir0.55,0.61,others
Pa1,0.61,others
U1Pd2Al3.03,0.61,heavy-Fermion
Th0.03U0.97Be13,0.602667,heavy-Fermion
Ba1Pd0.5Si1.5,0.6,others
Ca2In1N1,0.6,others
Ce1.025Cu2Si2,0.6,heavy-Fermion
U0.72Co0.28,0.6,heavy-Fermion
Ta0.65Ir0.35,0.6,others
Re0.18Ir0.72Rh0.1,0.6,others
Nb0.6Mo0.4,0.6,others
Nb0.6Ru0.4,0.6,others
Pd1Se1Te1,0.6,others
Pr0.5Nd0.5Os4Sb12,0.6,others
Rh1Sn2,0.6,others
Ru1Sb1,0.6,others
Sr2Ru0.999Ti0.001O4,0.6,others
La0.6U0.4Pd2Al3,0.6,heavy-Fermion
Y1Pb0.75In2.25,0.6,others
U1Co1Ge1,0.5995,heavy-Fermion
Mn0.001Al0.999,0.596,others
Au0.835Sn0.165,0.59,others
Th0.0245U0.9755Be13,0.59,heavy-Fermion
Mo0.99985Co0.00015,0.59,others
Ir0.35Cr0.65,0.59,others
La1Ir2Zn20,0.59,heavy-Fermion
La1Ni1Sn1,0.59,heavy-Fermion
Pt1Te1,0.59,others
Os0.9Ru0.1,0.584,others
U1,0.581667,others
Mo3Al1,0.58,others
Rh1As1,0.58,others
Ce0.025Th0.975,0.58,others
Pt1Ti3,0.58,others
Th0.026U0.974Be13,0.58,heavy-Fermion
La1Ga2,0.575,heavy-Fermion
Th0.019U0.9981Be13,0.573,heavy-Fermion
Os0.05Be0.95,0.57,others
La0.01Ce0.99Pt3Si1,0.57,heavy-Fermion
Rh1.6Cu1Sn0.4Se4,0.57,others
Lu1Ge1Sn1,0.57,heavy-Fermion
Os0.666Ru0.334,0.569,others
Be0.858Cu0.142,0.56,others
Hf2Co1,0.56,others
Lu1Se1,0.56,others
W1Na0.28O3,0.56,others
Y1Rh5,0.56,others
Th0.0378U0.9622Be13,0.557,heavy-Fermion
Ce1Co1In4.86Sn0.14,0.556,heavy-Fermion
Au4Al1,0.55,others
Th0.0355U0.9645Be13,0.55,heavy-Fermion
K1C1,0.55,others
Ce1Ru3B2,0.55,heavy-Fermion
U1Ge2,0.55,heavy-Fermion
Os0.47Ir0.18Rh0.35,0.55,others
Re0.16Ir0.64Rh0.2,0.55,others
Os0.1Ir0.6Rh0.3,0.55,others
La0.901Pr0.099Tl3,0.55,heavy-Fermion
Sr2Si3,0.55,others
Th0.9988U0.0012,0.55,others
Th0.038U0.962Be13,0.546,heavy-Fermion
Ce1Pt2.94Ni0.06Si1,0.545,heavy-Fermion
Zr0.5Cu0.5,0.543333,others
U1Co1Si0.04Ge0.96,0.541,heavy-Fermion
Os0.85Ir0.15,0.54,others
La0.28Pt0.72,0.54,others
U6Ni1,0.54,heavy-Fermion
Ti1O1.06,0.54,others
Th0.022U0.978Be13,0.539,heavy-Fermion
Y2Ni1Ge3,0.533,others
Th0.043U0.957Be13,0.5315,heavy-Fermion
Au0.845Sn0.155,0.53,others
Bi0.6Cd0.4,0.53,others
Hg0.03Cd0.97,0.53,others
U0.857Ni0.143,0.53,heavy-Fermion
Pd7Se2,0.53,others
Pr0.251Th0.749,0.53,others
Sr0.7Ca0.3Ti1O3,0.525,others
Ba0.05Sr0.95Ti1O3,0.525,others
Th0.017U0.983Be13,0.525,heavy-Fermion
Cd1,0.52414,others
U1Pt3,0.523364,heavy-Fermion
Ce1Cu2Si1.98Ge0.02,0.52,heavy-Fermion
U1Pd2Al2.7Ga0.3,0.52,heavy-Fermion
Th0.0185U0.9815Be13,0.519,heavy-Fermion
Th0.0178U0.9822Be13,0.519,heavy-Fermion
Ta4.3Au1,0.51,others
Mo0.99989Fe0.00011,0.51,others
Tl0.0078Pb0.9922Te1,0.51,others
U1.02Ni2Al3,0.51,heavy-Fermion
Ce1Pt3Si0.94Ge0.06,0.50525,heavy-Fermion
Ru1,0.501,others
Au1In1,0.5,others
Mo0.85Cr0.15,0.5,others
Rh0.2Cr0.8,0.5,others
Zr0.7Fe0.3,0.5,others
Ir0.82Mo0.18,0.5,others
W1K0.27O3,0.5,others
Nb1Te2,0.5,others
Pd0.5049V0.0051Sb0.49,0.5,others
Ba0.075Sr0.925Ti1O3,0.5,others
Sr0.925Ca0.075Ti1O3,0.5,others
Ta1Ir1Si1,0.5,others
Th0.9985U0.15,0.495,others
Lu1Rh5,0.49,heavy-Fermion
Th7Pt3,0.49,heavy-Fermion
Rh0.67Te0.33,0.49,others
Ba1Ti2As0.2Sb1.8O1,0.48,others
Th0.0193U0.9807Be13,0.48,heavy-Fermion
Rh1Ge1,0.48,others
Hg3Mg1,0.48,others
La0.9Pr0.1Se1,0.48,others
La1Pt2Ge2,0.48,heavy-Fermion
La3Ni4Si4,0.48,heavy-Fermion
U1Pt2.997Pd0.003,0.4785,heavy-Fermion
Os10,0.478,others
Ce1Ir1Hg0.054In4.946,0.476,heavy-Fermion
Ce1Pt2.82Ni0.18Si1,0.473,heavy-Fermion
Ce1Rh0.33Co1.67,0.47,heavy-Fermion
Ce1Ru0.1Co1.9,0.47,heavy-Fermion
Ir2Cu0.2Zn0.8S4,0.47,others
Ti1O0.86,0.47,others
Os0.333Ru0.667,0.47,others
Er2Fe3Si5,0.465,heavy-Fermion
Pd5As1,0.46,others
Au1Zr3,0.46,others
Ce1Co1.67Ni0.33,0.46,heavy-Fermion
Os0.375Ir0.125Rh0.5,0.46,others
K1Ni2S2,0.46,others
Os1Ti1,0.46,others
Sr2Ru0.99875Ti0.00125O4,0.46,others
Th0.0455U0.9545Be13,0.46,heavy-Fermion
Y1Ni1Ge3,0.46,others
Bi1Co1,0.455,others
Ce1Ni1Ge3,0.455,heavy-Fermion
Ce1Rh1Ge2,0.45,heavy-Fermion
Ga0.08Ge0.92,0.45,others
La0.5Ce0.5Ru2,0.449,others
In1As0.5Te0.5,0.44,others
Ru0.993Ni0.007,0.44,others
Th1Pt1,0.44,heavy-Fermion
Au0.865Sn0.135,0.435,others
Lu1B12,0.435,heavy-Fermion
Au0.855Sn0.145,0.43,others
Zr0.34V0.16Ni0.5,0.43,others
Pt0.014Ru0.986,0.43,others
Zr1V0.5Ni1.5,0.43,others
Ce1Ir0.956Pt0.044In5,0.429,heavy-Fermion
U1Co1Si0.06Ge0.94,0.423,heavy-Fermion
Ce1Pd2Si2,0.421,heavy-Fermion
In0.16Ge0.336Sn0.504Te1,0.42,others
W1O2.59F0.41,0.42,others
Bi1.1Nb1S3.1,0.415,others
Th0.0465U0.9535Be13,0.415,heavy-Fermion
Ir0.036Ru0.964,0.41,others
W0.15Ir0.85,0.41,others
Pd1Sn1,0.41,others
Pd2Sn1,0.41,others
U1Pt2.994Pd0.006,0.41,heavy-Fermion
W1O2.56F0.44,0.41,others
Au5Ba1,0.4,others
Ce0.98Th0.02Pt3Si1,0.4,heavy-Fermion
Ce2Co1In8,0.4,heavy-Fermion
Ru0.993Co0.007,0.4,others
Ir0.4Cr0.6,0.4,others
Pt1Ge1,0.4,others
Os0.27Ir0.63Rh0.1,0.4,others
Os0.25Ir0.75,0.4,others
Y0.65La0.35,0.4,others
Ru0.985Pd0.015,0.4,others
Ta0.85Pt0.15,0.4,others
Pb0.384In0.04Sn0.576Te1,0.4,others
La2Ni1Ge3,0.394,heavy-Fermion
Os1Al1,0.39,others
Sc1B12,0.39,others
Cd0.99995Mn0.00005,0.39,others
La1Pd2Si2,0.39,heavy-Fermion
W14P4O50,0.39,others
Au0.86Al0.14,0.385,others
Ce1Cu2Si1.96Ge0.04,0.385,heavy-Fermion
Ru0.7Cr0.3,0.38,others
Zr2Ga1,0.38,others
La0.9973Ce0.0027Rh3B2,0.38,heavy-Fermion
Ru0.96Rh0.04,0.38,others
Th0.052U0.948Be13,0.38,heavy-Fermion
W1O2.55F0.45,0.38,others
Th1B6,0.37,heavy-Fermion
Ce1Pt3.03Si0.97,0.37,heavy-Fermion
V0.61Cr0.39,0.37,others
Hf0.99Zr0.01,0.37,others
Os0.3Ir0.4Rh0.3,0.37,others
Th1Ir1,0.37,heavy-Fermion
La0.7Pr0.3Pb3,0.37,heavy-Fermion
La3Ni4Ge4,0.37,heavy-Fermion
Hf1Ni2Al1,0.37,others
Pt1Sn1,0.37,others
Yb0.16Au0.635Ge0.205,0.36,heavy-Fermion
Ru0.969Ni0.031,0.36,others
Th1Rh1,0.36,heavy-Fermion
Ce1Rh2Si2,0.356667,heavy-Fermion
Ce1Ir0.9Rh0.1In5,0.35,heavy-Fermion
Ce1Ru0.2Co1.8,0.35,heavy-Fermion
Sc0.7Co0.3,0.35,others
Sc0.05Zr0.93Fe0.02,0.35,others
Os0.67Ir0.165Rh0.165,0.35,others
La1.85Sr0.15Cu0.975Ga0.025O4,0.35,cuprate
V0.78Ni0.22,0.35,others
Pd3P1,0.35,others
Pt2Sr1,0.35,others
La1Ni2Ge2,0.345,heavy-Fermion
Nb5Si3,0.345,others
W0.28Pd0.72,0.345,others
U1Pt2.991Pd0.009,0.345,heavy-Fermion
Th0.0603U0.9397Be13,0.344,heavy-Fermion
Pt1Al2,0.343333,others
Ag3.3Al1,0.34,others
Au5Ca1,0.34,others
B0.057Si0.943,0.34,others
Y0.72Co0.28,0.34,others
Y3Co1,0.34,others
Ru0.9Cr0.1,0.34,others
Os0.17Ir0.73Ru0.1,0.34,others
Re0.1Ir0.9,0.34,others
Au0.875Sn0.125,0.33,others
U1Pd2Al2.4Ga0.6,0.33,heavy-Fermion
Ti1,0.324,others
Au0.4Ge0.6,0.32,others
Ce3Pt1In11,0.32,heavy-Fermion
Ru0.985Co0.015,0.32,others
Cs1V6S8,0.32,others
Pr0.342Th0.658,0.32,others
Sc0.01Zr0.99,0.32,others
Ge0.937Te1,0.311,others
Ce1Pt3Si0.9Ge0.1,0.31,heavy-Fermion
Mo0.99968Co0.00032,0.31,others
K1C8,0.30475,others
Th0.998U0.2,0.304,others
Nb5Ge3,0.303333,others
Ag7O8F1,0.3,others
Na2Cu3S3,0.3,others
La1Pt3Si1,0.3,heavy-Fermion
Mo1Te2,0.3,others
Sr1Zr0.03Ti0.97O3,0.3,others
Y1Ba1.5La0.5Cu3O7,0.3,cuprate
Zr1Zn2,0.296667,others
Au1Sb2,0.29,others
Ir0.9Mo0.1,0.29,others
Ce0.35Pr0.65Pt4Ge12,0.29,heavy-Fermion
Pt0.06Ru0.94,0.29,others
U1Co1Si0.08Ge0.92,0.288,heavy-Fermion
Au0.8In0.2,0.28,others
Ir0.14Ru0.86,0.28,others
Os0.24Ir0.56Rh0.2,0.28,others
Mg7Zn3,0.28,others
La0.75Pr0.25Ir2Zn20,0.28,heavy-Fermion
N0.3S0.7,0.275,others
Ce1Cu2Si1.92Ge0.08,0.27,heavy-Fermion
Ce1Ru0.3Co1.7,0.27,heavy-Fermion
Ru0.978Co0.022,0.27,others
Os0.21Ir0.49Rh0.3,0.27,others
Ru0.895Rh0.105,0.27,others
Ta1Se0.7Te1.3,0.27,others
Au0.9Ga0.1,0.264,others
Mn0.002Al0.998,0.262,others
Ir0.85V0.15,0.26,others
N1S1,0.26,others
Ir1Cr3,0.256,others
Pt3V1,0.254,others
Mo1B1,0.25,others
Ta1.5W0.5B1,0.25,others
Ru0.973Co0.027,0.25,others
Re0.14Ir0.56Rh0.3,0.25,others
Ir0.66Mo0.34,0.25,others
La4Sb3,0.25,heavy-Fermion
Os0.3Ir0.7,0.24835,others
Ge0.95Te1,0.246,others
U1Rh1Ge1,0.244,heavy-Fermion
Ba6Ge25,0.24,others
Mg0.04Cd0.96,0.24,others
Cu0.81Ge0.19,0.24,others
Lu1In3,0.24,heavy-Fermion
La1Ir2,0.24,heavy-Fermion
U1Pt2.988Pd0.012,0.24,heavy-Fermion
Y1Cu1,0.235,others
Pd5As2,0.23,others
W0.1Ir0.9,0.23,others
La1Pt2,0.23,heavy-Fermion
Yb1Pb3,0.23,heavy-Fermion
U1Re0.01Ru1.99Si2,0.23,heavy-Fermion
Au1In2,0.22,others
K1H0.19C8,0.22,others
Ce1Ir0.35Rh0.65In5,0.22,heavy-Fermion
Ce2Ni3Ge5,0.22,heavy-Fermion
Mo0.99962Co0.00038,0.22,others
Os0.73Ir0.135Rh0.135,0.22,others
Os0.2Ir0.6Rh0.2,0.22,others
Re0.07Ir0.93,0.22,others
Ce1Ni2Ge2,0.216667,heavy-Fermion
W0.27Pt0.73,0.213,others
Hf1Mo2,0.210167,others
Th2Al0.5Ge0.5,0.21,others
Au0.885Sn0.115,0.21,others
Hf2Ga1,0.21,others
Os0.3Ir0.1Rh0.6,0.21,others
Ir0.22Ru0.78,0.21,others
Pd4Se1,0.21,others
Pt0.113Ru0.887,0.21,others
Ta0.8Re0.2,0.21,others
Th1In2.25Sn0.75,0.21,heavy-Fermion
Mo1As2,0.205,others
Ce1Cu2Si1.88Ge0.12,0.2,heavy-Fermion
Ce1Cu2Si1.9Ge0.1,0.2,heavy-Fermion
Ru0.964Co0.034,0.2,others
Th1Cu6,0.2,heavy-Fermion
Zr2Fe0.6Ni0.4,0.2,others
La1Fe0.985Zn0.015As1O0.9F0.08,0.2,iron-based
La1Ru2Zn20,0.2,heavy-Fermion
Ru0.92Ni0.08,0.2,others
Sm1H0.03Fe1As1O0.97,0.2,iron-based
Ca24Al28O66,0.195,others
Ce1Ir1Cd0.125In4.875,0.194,heavy-Fermion
Pr1Ti2Al20,0.19,heavy-Fermion
Rh1V3,0.19,others
Lu1Au1,0.185,heavy-Fermion
Mg0.2Cd0.8,0.185,others
Cu0.845Sb0.155,0.184,others
Ir0.32Ru0.68,0.18,others
Ir0.43Ru0.57,0.18,others
Ir0.71Ru0.29,0.18,others
Ru0.8Rh0.2,0.18,others
Ru0.4Rh0.6Se2,0.18,others
Ge1Te1,0.178,others
Zr1Al2,0.175,others
Lu3Co1,0.175,heavy-Fermion
Cu0.815Ge0.185,0.175,others
Ta1Si2,0.1725,others
Ir0.925Nb0.075,0.172,others
Ge0.963Te1,0.171,others
Zr2Fe1,0.17,others
Au0.92Ga0.08,0.168,others
Ir0.953Mo0.047,0.168,others
Sn0.965Te1,0.168,others
Ce1Cu2Si1.8Ge0.2,0.1675,heavy-Fermion
Sn0.966Te1,0.167,others
Ru0.982Fe0.018,0.165,others
Sn0.975Te1,0.165,others
W0.047Ir0.953,0.162,others
Mg0.25Cd0.75,0.16,others
Hg1Mg3,0.16,others
Os0.175Ir0.725Rh0.1,0.16,others
Os0.075Ir0.825Ru0.1,0.16,others
U1Ni1.95Al3.05,0.16,heavy-Fermion
Au0.92Al0.02Ga0.06,0.158,others
La4Bi1.5Sb1.5,0.158,heavy-Fermion
La4Bi3,0.155,heavy-Fermion
Mo0.75Cr0.25,0.155,others
U1Co1Si0.1Ge0.9,0.153,heavy-Fermion
K1C8.1,0.152,others
Ag7B1O8F4,0.15,others
La0.015Ce0.985Pt3Si1,0.15,heavy-Fermion
Ta0.06Ir0.94,0.15,others
Ir0.965V0.035,0.147,others
Mg0.14Cd0.86,0.145,others
Cu0.825Ge0.175,0.145,others
Sn0.97Te1,0.143667,others
Ta1Se2,0.1425,others
Ir0.765Ru0.235,0.142,others
Re0.04Ir0.96,0.142,others
Tl1Bi1Te2,0.141,others
Ce1Pt1Si2,0.14,heavy-Fermion
Rh1.5Cu1Sn0.5Se4,0.14,others
Os0.8Ir0.1Rh0.1,0.14,others
U1Ir1,0.14,heavy-Fermion
Mg0.1Cd0.9,0.138,others
Ir0.965Nb0.035,0.138,others
Au0.92Ga0.068In0.012,0.137,others
Cs1C8,0.135,others