Formula,Tc,Materials_family
Sm1Ba2Cu3O6.554,44.7,cuprate
Y0.74Ca0.26Ba2Cu3O6,44.7,cuprate
Gd1Ba1.8Pr0.2Cu3O7.01,44.5,cuprate
Y0.65Pr0.35Ba2Cu3O7.01,44.5,cuprate
Sm1Fe1As1O0.85F0.15,44.488889,iron-based
Pr1Fe1As1O0.896,44.4,iron-based
Tb1Fe1As1O0.85,44.4,iron-based
Sr2Cu1F2O2,44.333333,cuprate
Y1Ba1.8La0.2Cu3O6.7,44.3,cuprate
Y1Ba2Cu3.925Fe0.075O8,44.2,cuprate
Y0.6Pr0.4Ba2Cu3O6.98,44.1,cuprate
Y0.9Pr0.1Ba2Cu3O6.6,44.1,cuprate
Y1Ba1.54La0.46Cu3O7.118,44.1,cuprate
Bi0.1Pb0.4La1.2Sr1.3Cu2O5.78,44,cuprate
La0.143Ca0.857Fe2As2,44,iron-based
Ca1La1Ba1Cu2.94Fe0.06O7,44,cuprate
Ce0.62Gd0.38Fe1As1O0.825F0.175,44,iron-based
Dy0.9Ce0.1Ba2Cu4O8,44,cuprate
Dy1Ba2Cu2.9Zn0.1O6.96,44,cuprate
Er1Ba2Cu2.79Zn0.03Fe0.18O6.97,44,cuprate
La0.9Pr0.1Ba1.5Sr0.5Cu3O6.904,44,cuprate
Li1Fe2Se2,44,iron-based
Nd2Tl2Sr2Cu3O11,44,cuprate
Pr1Fe1As1O0.6,44,iron-based
Ru1Sr2Eu1.4Ce0.6Cu2O10,44,cuprate
Sr0.9Sm0.1Cu1O2,44,cuprate
Y0.6Pr0.4Ba1.6Sr0.4Cu3O6.87,44,cuprate
Y0.8Ca0.2Ba2Cu2.8Zn0.2O6.74,44,cuprate
Y1Ba1.8La0.2Cu4O8,44,cuprate
Y1Ba2Cu2.94Zn0.06O6.77,44,cuprate
Y1Ba2Cu2.9Ni0.1O6.77,44,cuprate
Y1Sr2Cu2.7Re0.3O7.2,44,cuprate
Ca0.4Ba1.15La1.45Cu3O7.21,43.9,cuprate
Y1Ba2Cu2.8Fe0.2O6.8,43.9,cuprate
La1.3Ba1.5Sr0.2Cu3O6.901,43.8,cuprate
Tb1Fe1As1O0.82,43.8,iron-based
Y1Ba2Cu3H0.53O6.54,43.8,cuprate
Sm1.28Ba1.72Cu3O7.03,43.6,cuprate
Y0.85Ca0.15Sr1Ba1Cu2.5B0.5O7,43.6,cuprate
Ce1Fe1As1O0.88F0.12,43.5,iron-based
Fe1Sr2Y1Cu2O7.66,43.5,cuprate
La2Cu1O4.11,43.5,cuprate
Nd1.2Ba1.8Cu3O7.1,43.5,cuprate
Pr1Fe1As1O0.9F0.1,43.5,iron-based
Sr0.9Gd0.1Cu1O2,43.5,cuprate
Y0.8Ca0.2Ba2Cu3O6.03,43.5,cuprate
Y1Ba2Cu2.95Fe0.05O6.69,43.5,cuprate
Y1Ba2Cu2.9Zn0.1O6.99,43.5,cuprate
Sm1H0.066Fe1As1O0.934,43.3,iron-based
Ba1.4Sr0.6Yb1Cu3O6.66,43.1,cuprate
Y1Ba2Cu2.94Ni0.06O6.64,43.1,cuprate
Y1Sr2Cu2.85Re0.15O6.95,43.1,cuprate
Bi1.6Sr0.4Yb0.65Ca0.35Cu3O6.075,43,cuprate
Bi1.8Pb0.2Sr2Ca1Cu1.92Co0.08O8,43,cuprate
Ce0.24Ca0.76Fe1As1.8Sb0.2,43,iron-based
Pr0.24Ca0.76Fe1As0.9Sb0.1,43,iron-based
Nd0.16Ca0.84Fe1As0.9Sb0.1,43,iron-based
La0.15Ca0.85Fe1As1.98Sb0.02,43,iron-based
Ce1D0.4Fe1As1O0.6,43,iron-based
Er1Ba2Cu2.73Zn0.24Fe0.03O6.92,43,cuprate
Eu1Ba2Cu2.85Ga0.15O6.76,43,cuprate
Gd0.9Ca0.1Ba1Sr1Cu3O6.8754,43,cuprate
La1.35Ba1.5Ca0.15Cu3O6.67,43,cuprate
La1.9Sr0.1Ca1Cu2O6.03,43,cuprate
La2Cu1O4.12,43,cuprate
Nd0.8Th0.2Fe1As1O1,43,iron-based
Pr2Tl2Sr2Cu3O11,43,cuprate
Ru0.8Sr2Y1Cu2.2O7.8,43,cuprate
Sr0.92Sm0.08Cu1O2,43,cuprate
Tl1Sr1.8Cr0.2Cu1O5,43,cuprate
Tl1Sr2Ca1Cu2O6.58,43,cuprate
Tl1Sr2Ca1Cu2O6.74,43,cuprate
Y0.85Ca0.15Ba2Cu2.85Zn0.15O6.85,43,cuprate
Y0.8Ca0.2Ba2Cu2.8Zn0.2O6.73,43,cuprate
Y0.8Zn0.2Ba2Cu3O7,43,cuprate
Y0.9Ca0.1Ba1.6La6Cu3O7.18,43,cuprate
Y1Ba1.8Cu2.8Co0.2O6.95,43,cuprate
Y1Sr2Cu2.65Mo0.35O7.4,43,cuprate
Y1Sr2Cu2.7Fe0.3O6.9,43,cuprate
Y1Sr2Cu2.8Re0.2O6.9,43,cuprate
Y1Ba2Cu2.961Zn0.039O6.78,42.9,cuprate
Li1Fe3O2Se2,42.8,iron-based
Ce1Fe1As1O0.85,42.6,iron-based
Ca4Mg0.75Ti2.25Fe2As2O7.5,42.5,iron-based
Sr0.9La0.1Cu1O1.96,42.5,cuprate
Y1Ba2Cu2.97Zn0.03O6.63,42.5,cuprate
Sr0.88La0.12Cu1O1.97,42.4,cuprate
Sr0.95La0.05Cu1O2.01,42.4,cuprate
Bi2Sr2Ca0.6Pr0.4Cu2O8,42.2,cuprate
Sm0.9Pr0.1Ba2Cu3O6.85,42.2,cuprate
Bi2Sr2Ca1Cu2O8.428,42.1,cuprate
Y1Ba2Cu3H0.64O6.54,42.05,cuprate
Er1Ba2Cu2.79Zn0.12Fe0.09O6.95,42,cuprate
Eu0.5Sr0.5Ba1.6Pr0.1Cu3O7.07,42,cuprate
Eu1.2Ba1.8Cu3O7.18,42,cuprate
Ga0.8Sr2Y0.6Ca0.4Cu2.2O7,42,cuprate
Gd1.2Ba1.8Cu3O7.03,42,cuprate
La2.77Ca0.46Ba2.77Cu6O14.246,42,cuprate
La2Cu1O4.022,42,cuprate
Li0.84H1Fe1.14O1Se1,42,iron-based
Pb1Sr0.8Ba1.2Y0.7Ca0.3Cu3O8.41,42,cuprate
Sm0.9Ca0.1Ba2Cu2.8Zn0.2O6.85,42,cuprate
Sm1Fe1As1O0.91F0.09,42,iron-based
Sr0.9La0.1Cu0.99Zn0.01O2,42,cuprate
Y0.75Ca0.25Ba2Cu2.75Zn0.25O6.76,42,cuprate
Y1Ba2Cu2.6Al0.4O7,42,cuprate
Yb0.8Fe2Se2,42,iron-based
Ca0.1Ba1.65La1.25Cu3O7.06,41.9,cuprate
Y1La1.8Ba3.2Cu6O14.49,41.9,cuprate
Nd0.077Ca0.923Fe2As2,41.8,iron-based
Y0.9Ca0.1Ba2Cu3O6.4,41.8,cuprate
Y1Ba2Cu3.92Mn0.08O8,41.6,cuprate
La1Ba1Sr1Cu3O7.01,41.5,cuprate
Sr0.9Pr0.1Cu1O2,41.5,cuprate
Y0.8Pr0.2Ba2Cu3O6.75,41.5,cuprate
Sr0.9La0.1Cu1O2,41.45,cuprate
Sc0.012Mg0.988B2,41.4,others
Ca0.5Nd0.5Ba1La1Cu3O7.17,41.4,cuprate
Nb0.6Ru0.6Sr2Eu1.5Ce0.5Cu2O10,41.4,cuprate
Bi1.7Pb0.3Sr2Ca0.55Y0.45Cu1.94Zn0.06O8,41.3,cuprate
Bi1.7Pb0.3Sr2Ca0.5Y0.5Cu2O8,41.3,cuprate
Nd0.85Pr0.15Ba2Cu3O6.85,41.3,cuprate
Y1Ba2Cu2.85Ni0.15O6.78,41.3,cuprate
La0.165Ca0.835Fe2As2,41.2,iron-based
Dy0.6Pr0.4Ba2Cu3O6.9,41.2,cuprate
Y2Ba4Cu7O14.6,41.2,cuprate
C0.48Sr2Ca0.4Y0.6Cu2.46O6.97,41.1,cuprate
Ca0.2Ba1.55La1.25Cu3O7.05,41.1,cuprate
Ce1H0.065Fe1As1O0.935,41.1,iron-based
Y1Ba2Cu2.94Zn0.06O6.76,41.1,cuprate
Ba1.6Sr0.4Yb0.7Ca0.3Cu3O6,41,cuprate
Bi1.5Ga0.5Sr1.8Ca1.2Cu2O8,41,cuprate
Bi1.6Pb0.4Sr4Cu2C1O11,41,cuprate
La0.16Ca0.84Fe1P0.01As1.99,41,iron-based
Ca1.8Cu1Cl2O2,41,cuprate
Cu5C0.5Sr2Ca1O10.8,41,cuprate
Eu0.7Pr0.3Ba2Cu3O6.66,41,cuprate
Ga0.9Sr2Y0.6Ca0.4Cu2.1O7,41,cuprate
Gd1Ba2Cu2.7Fe0.3O6.9,41,cuprate
Gd1Ba2Cu2.82Fe0.18O6.91,41,cuprate
La1.8K0.2Cu1O4,41,cuprate
La2.5Y0.5Ca1Ba3Cu6.16Fe0.84O16.634,41,cuprate
Lu0.8Ca0.2Ba2Cu3O6.13,41,cuprate
Nd1.2Ba1.4Sr0.4Cu3O6.789,41,cuprate
Nd1.4Pr0.6Ba4Cu7O14.541,41,cuprate
Sm1Ru0.05Fe0.95As1O0.85F0.15,41,iron-based
Y0.6Ca0.4Sr2Cu2Ga1O7,41,cuprate
Y0.7Ca0.3Sr1.5Ba0.5Cu2.8Cr0.2O7,41,cuprate
Y1Ba2Cu2.97Li0.03O6.6,41,cuprate
Y1Ba2Cu2.97Zn0.03O6.68,41,cuprate
Yb0.55Pr0.45Ba1.7Sr0.3Cu3O6.88,41,cuprate
Y1Ba1Sr1Cu2.75Sn0.25O7.16,40.9,cuprate
Y1Ba1Sr1Cu2.75Sn0.25O7.163,40.9,cuprate
Ce1Fe1As1O0.84F0.16,40.85,iron-based
Nd0.85Pr0.15Ba2Cu3O7,40.7,cuprate
La0.2Ca0.8H1Fe1As1,40.6,iron-based
Y0.8Ca0.2Ba2Cu3O6.3,40.6,cuprate
La1Ba2Cu2.95Co0.05O6.94,40.5,cuprate
Li0.8H1Fe1.2O1Se1,40.45,iron-based
Ce1Fe1As1O0.8F0.2,40.4,iron-based
La2Cu1O4.07,40.4,cuprate
Ru0.97Ti0.03Sr2Gd1Cu2O8,40.3,cuprate
Ce1H0.4Fe1As1O0.6,40.2,iron-based
Ce1Fe1As1O0.7,40.2,iron-based
Y0.5La0.5Fe1As1O0.85F0.15,40.2,iron-based
Ca0.4Ba1.25La1.25Cu3O6.98,40.1,cuprate
Lu0.5Pr0.5Ba2Cu3O6.75,40.1,cuprate
Nd1Fe0.98Co0.02As1O0.89F0.11,40.1,iron-based
Sm1Fe1As1O0.8,40.1,iron-based
Y1Ba2Cu2.94Ni0.06O6.6,40.1,cuprate
Ba2Ca1Cu2F2.2O3.8,40,cuprate
Bi2Sr2Ca0.5Y0.5Cu2O8.33,40,cuprate
C0.47Sr2Ca0.35Y0.65Cu2.48O6.96,40,cuprate
Ca0.5Fe2Se2,40,iron-based
La0.2Ca0.8Fe2As2,40,iron-based
Pr0.098Ca0.902Fe2As2,40,iron-based
Ca8Mg1.5Ti4.5Fe2As2O9.5,40,iron-based
Eu0.6Pr0.4Ba2Cu4O8,40,cuprate
Eu1.4Ce0.6Ru1Sr2Cu2O10,40,cuprate
Eu1Fe2Se2,40,iron-based
Fe0.5Ba1Sr1Tm1Cu2.5O7.432,40,cuprate
Ga1Sr2Tm0.7Ca0.3Cu2O7,40,cuprate
Gd1Ba2Cu2.73Fe0.27O6.98,40,cuprate
Hg0.75Mo0.25Ba2Cu1O4.51,40,cuprate
La0.7Ca0.1Pr0.2Ba1.5Sr0.5Cu3O6.862,40,cuprate
La0.7Pr0.3Ca1Ba1Cu3O7,40,cuprate
La1.25Ba1.75Cu3O7.07,40,cuprate
La1.4Ba1.5Ca0.1Cu3O6.943,40,cuprate
La1.5Ba1.1Ca0.4Cu3O6.969,40,cuprate
La1.82Ca1.16Y0.02Cu2O6,40,cuprate
La1.85Sr0.15Cu1O4.022,40,cuprate
La1.85Sr0.15Cu1O4.03,40,cuprate
La1.8Er0.2Ba2Ca0.4Cu4.4O10.371,40,cuprate
La1.96Sr0.04Cu1O4.05,40,cuprate
La1.98Sr0.02Cu1O4.09,40,cuprate
La1.99Sr0.01Cu1O4.13,40,cuprate
La1.9Sr0.1Cu1O4.018,40,cuprate
La1.9Sr0.1Cu1O4.023,40,cuprate
La1Ba1.5Ca0.5Cu3O6.79,40,cuprate
La1Ba1Cu2.88Co0.12O7,40,cuprate
La1Fe1As1O0.4F0.6,40,iron-based
La2Cu0.955V0.045O4.056,40,cuprate
La2Cu0.965V0.035O4.045,40,cuprate
La2Cu0.975V0.025O4.032,40,cuprate
La2Cu0.985V0.015O4.021,40,cuprate
Nd1.2Ba1.4Ca0.4Cu3O6.888,40,cuprate
Pb0.8Sr1Ba1.2Y0.7Ca0.3Cu3O7.59,40,cuprate
Sm4Fe2As2O2.8Te0.72F1.2,40,iron-based
Sr0.84Nd0.16Cu1O2.01,40,cuprate
Sr2Ca4Cu5F2O10.57,40,cuprate
Sr2V1Fe1As1O2.9,40,iron-based
Tl0.5Pb0.5Sr2Eu1.8Ce0.2Cu2O9,40,cuprate
Tl1Ba2Ca0.5Nd0.5Cu2O6.86,40,cuprate
Tl1Sr2Ca1Cu2O6.825,40,cuprate
Tl2Ba2Cu1O6.056,40,cuprate
Y0.6Pr0.4Ba2Cu3O6.97,40,cuprate
Y1Sr2Cu2.8Mo0.2O7,40,cuprate
Y1Ba2Cu2.97Zn0.03O6.67,39.8,cuprate
Sm0.8Pr0.2Ba2Cu3O6.95,39.65,cuprate
Gd0.7Pr0.3Ba2Cu3O7,39.6,cuprate
Y1Ba2Cu3.94Zn0.06O8,39.6,cuprate
Eu1.3Ba1.7Cu3O7.15,39.5,cuprate
La1.828Sr0.172Cu1O4,39.35,cuprate
Y0.5La0.5Fe1As1O0.6,39.3,iron-based
La1.847Sr0.153Cu1O4,39.25,cuprate
Gd1Ba1.75Pr0.25Cu3O7.06,39.2,cuprate
Y1Ba2Cu2.85Zn0.15O6.95,39.2,cuprate
Y0.8Pr0.2Sr2Cu2.85Re0.15O7,39.1,cuprate
Ba0.63K0.37Fe2As2,39,iron-based
Ba0.64K0.34Fe2As2,39,iron-based
Ba0.8Fe2Se2,39,iron-based
La0.18Ca0.82Fe1P0.01As1.99,39,iron-based
Dy1Ba2Cu2.7Ga0.3O6.77,39,cuprate
Ca5Mg0.8Ti3.2Fe2As2O9.8,39,iron-based
La1.85Sr0.15Cu1O4.05,39,cuprate
La1.8Gd0.2Ba2Ca0.4Cu4.4O10.344,39,cuprate
La1.97Sr0.03Cu1O4.06,39,cuprate
La2.4Ba3.6Cu6O14.01,39,cuprate
Mg0.7Be0.3B2,39,others
Sc0.02Mg0.98B2,39,others
Mg1B2,39,others
Ru1Sr1.6Ba0.4Gd1Cu2O8,39,cuprate
Sr0.85Pr0.15Cu1O2,39,cuprate
Y1Ba2Cu2.85Zn0.15O6.97,39,cuprate
Bi1.8Pb0.2Sr2Ca1Cu1.88Co0.12O8,38.8,cuprate
Eu0.7Pr0.3Ba2Cu3O6.95,38.8,cuprate
Y0.4La0.6Fe1As1O0.6,38.8,iron-based
La1.25Ca0.1Ba1.65Cu3O7.06,38.8,cuprate
Nd1Ru0.1Fe0.9As1O0.89F0.11,38.7,iron-based
Pb0.5Cu1Sr0.8La1.2O5.01,38.7,cuprate
Y1Ba2Cu2.97Zn0.03O6.59,38.7,cuprate
Yb0.5Pr0.5Ba2Cu3O6.67,38.7,cuprate
La1.25Ca0.05Ba1.7Cu3O7.03,38.6,cuprate
Li0.8H1Fe1.2O1S0.16Se0.84,38.6,iron-based
Mg0.8Cu0.2B2,38.6,others
Mg0.99Ti0.01B2,38.6,others
Mg0.9Cu0.1B2,38.6,others
Sr0.75Y0.25Cu1O2,38.6,cuprate
Sr0.8Y0.2Cu1O2,38.6,cuprate
Sr0.95Y0.05Cu1O2,38.6,cuprate
Mg0.95Ti0.05B2,38.5,others
Mg0.95Zn0.025B2Al0.025,38.5,others
Mg0.9Zn0.05B2Al0.05,38.5,others
Mg1B1.9906C0.0094,38.5,others
Pb0.5Cu1Sr0.9La1.1O5.02,38.5,cuprate
Tl0.7La1Sr1Cu1O5,38.5,cuprate
Mg0.98B2,38.4,others
Mg0.8Zn0.2B2,38.4,others
Mg0.9Zn0.1B2,38.4,others
Sm1Ba2Cu3O6.75,38.4,cuprate
Mg0.95Zn0.05B2,38.3,others
Mg0.9Ti0.1B2,38.3,others
Mg1B1.92C0.08,38.3,others
Y1Ba1.5La0.5Cu3O7.19,38.3,cuprate
La1.86Sr0.14Cu0.99Li0.01O4,38.25,cuprate
Mg0.95Li0.05B2,38.25,others
Mg0.9B2,38.2,others
Mg0.95Li0.025B2Al0.025,38.2,others
Mg0.996Cu0.004B2,38.11,others
Mg0.989Cu0.011B2,38.05,others
Mg0.8B2,38,others
Ba0.5K0.5Fe2As2,38,iron-based
Ba0.65K0.35Fe2As2,38,iron-based
Ba0.663K0.337Fe2As2,38,iron-based
Ca0.1La1.25Ba1.65Cu3O7.06,38,cuprate
Ca0.4La1.25Ba1.35Cu3O6.99,38,cuprate
Pt4.8Ca10Fe8.2As18,38,iron-based
Pt4Ca10Fe10As18,38,iron-based
Ca2Cu1Cl2.4O2,38,cuprate
Ca2Cu1Cl2.5O2,38,cuprate
Ga1Sr2Y0.6Ca0.4Cu2O7,38,cuprate
Y0.7La0.3Fe1As1O0.85F0.15,38,iron-based
La0.62Dy0.38Fe1As1O0.825F0.175,38,iron-based
La1.3Ba1.2Sr0.5Cu3O6.955,38,cuprate
La1H0.3Fe1As1O0.7,38,iron-based
La2Cu1O4.066,38,cuprate
Mg0.85Na0.15B2,38,others
Mg0.8Na0.2B2,38,others
Mg0.92Li0.08B2,38,others
Mg0.93Na0.07B2,38,others
Mg0.97Na0.03B2,38,others
Nd1.4Ba1.6Cu3O7.09,38,cuprate
Nd1Ba2Cu2.9Ga0.1O6.61,38,cuprate
Nd1Mn0.01Fe0.99As1O0.89F0.11,38,iron-based
Ru0.98Ir0.02Sr2Gd1Cu2O8,38,cuprate
Sm1.2Ba1.8Cu3O7.09,38,cuprate
Sr0.8Fe2Se2,38,iron-based
Sr0.9La0.1Cu0.97Zn0.03O2,38,cuprate
Sr1.5Ba0.5Y1Cu2.8Ga0.2O7,38,cuprate
Sr2Ca3Cu4F2O8.6,38,cuprate
Tl1Sr2Ca0.2Pr0.8Cu2O7,38,cuprate
Tl2Ba2Cu1O5.957,38,cuprate
Y0.6Pr0.4Ba2Cu3O6.65,38,cuprate
Y1Ba1.5La0.5Cu3O7.08,38,cuprate
Y1Ba2Cu2.961Zn0.039O6.7,38,cuprate
Mg0.99B2Al0.01,37.95,others
Fe0.5Ba1Sr1Dy1Cu2.5O7.447,37.9,cuprate
Y1Ba1.78La0.22Cu4O8,37.9,cuprate
Y0.4Pr0.6Ba2Cu4O8,37.875,cuprate
La0.2Ca0.8Fe0.978Co0.022As2,37.8,iron-based
Eu0.6Pr0.4Ba2Cu3O7,37.8,cuprate
La2Cu1O4.095,37.8,cuprate
Mg0.8Ti0.2B2,37.8,others
Mg0.93Li0.07B2,37.8,others
Mg0.982Cu0.018B2,37.8,others
Mg0.997Fe0.003B2,37.8,others
Mg0.9Li0.05B2Al0.05,37.8,others
Pb0.6Cu1Sr1La1O5.06,37.8,cuprate
Ru0.925Sn0.075Sr2Gd1Cu2O8,37.8,cuprate
Ba0.68K0.32Fe2As2,37.75,iron-based
Gd1Sr2Ru0.9Cu2.1O8,37.75,cuprate
Mg0.95Cu0.05B2,37.75,others
Bi4Sr4Ca1Tm1Cu4O16.67,37.7,cuprate
Mg0.95Zr0.05B2,37.7,others
Mg1.995Mn0.005B2,37.7,others
Mg1B1.958C0.042,37.7,others
Pb0.5Cu1Sr0.9La1.1O5.08,37.7,cuprate
Sr0.5K0.5Fe2As2,37.7,iron-based
Mg0.4Ti0.6B2,37.6,others
Mg1.99Mn0.01B2,37.6,others
Pb0.6Cu1Sr0.9La1.1O5.06,37.6,cuprate
Pb0.6Cu1Sr1La1O5.05,37.6,cuprate
Tl1Sr2Ca0.5Sm0.5Cu2O6.75,37.6,cuprate
Mg0.97Cu0.03B2,37.58,others
Mg1B1.98C0.02,37.533333,others
Hg1Ba2Cu1O4.37,37.5,cuprate
La2Cu1O4.32,37.5,cuprate
Mg0.6Ti0.4B2,37.5,others
Na0.65Fe1.93Se2,37.5,iron-based
Sr0.86Nd0.14Cu1O2,37.5,cuprate
Tl1Sr1.9Cr0.1Cu1O5,37.5,cuprate
Y1Ba2Cu2.94Ni0.06O6.56,37.5,cuprate
La1.75Pr0.1Sr0.15Cu1O4,37.4,cuprate
Mg0.98Co0.02B2,37.4,others
Mg1.985Mn0.015B2,37.4,others
Y1Ba2Cu2.95Fe0.05O6.64,37.4,cuprate
Y1Ba2Cu2.9Fe0.1O6.75,37.4,cuprate
Mg0.8Zr0.2B2,37.3,others
Mg0.97B2Al0.03,37.3,others
Mg0.9Zr0.1B2,37.3,others
Mg1.9Cu0.1B12,37.3,others
Nb0.6Ru0.4Sr2Eu1.5Ce0.5Cu2O10,37.3,cuprate
Mg0.7B2,37.2,others
Sm1Mn0.01Fe0.99As1O0.88F0.12,37.2,iron-based
Ba0.5K0.5Ru0.1Fe1.9As2,37.14,iron-based
Mg0.99Co0.01B2,37.1,others
Ba0.677K0.323Fe2As2,37,iron-based
Bi1.6Sr0.4Yb1Cu3O6.35,37,cuprate
Er1Ba2Cu2.73Zn0.18Fe0.09O6.94,37,cuprate
Hg1.4Tl0.6Ba2Y0.9Ca0.1Cu2O7.88,37,cuprate
La1.55Sr0.15Na0.3Cu1O4,37,cuprate
La1.67Sr0.33Cu1O4,37,cuprate
La1.73Sr0.27Cu0.92Mn0.08O4,37,cuprate
La1.73Sr0.27Cu0.94Mn0.06O4,37,cuprate
La1.7575Pr0.0925Sr0.15Cu1O4,37,cuprate
La1.75Sr0.15Na0.1Cu1O4,37,cuprate
La1.75Sr0.25Cu1O4.07,37,cuprate
La1.77Sr0.23Cu0.96Mn0.04O4,37,cuprate
La1.79Sr0.21Cu0.96Mn0.04O4,37,cuprate
La1.7Sr0.15Na0.15Cu1O4,37,cuprate
La1.7Sr0.3Cu0.9Mn0.1O4,37,cuprate
La1.81Sr0.19Cu0.98Mn0.02O4,37,cuprate
La1.82Sr0.18Cu0.98Mn0.02O4,37,cuprate
La1.83Sr0.15Na0.02Cu1O4,37,cuprate
La1.85Sr0.15Cu1O3.998,37,cuprate
La1.8Sr0.15Na0.05Cu1O4,37,cuprate
La2Tl2Sr2Cu3O11,37,cuprate
Mg0.94B2Al0.06,37,others
Mg1B1.938C0.062,37,others
Mg1B1.968C0.032,37,others
Sm1La0.82Sr0.18Cu1O4,37,cuprate
Tb1Sr2Cu2.7Mo0.3O7.15,37,cuprate
Tl0.8La1Sr1Cu1.2O5,37,cuprate
Tl1Sr2Ca1Cu2O6.75,37,cuprate
Y0.8Pr0.2Ba2Cu3O6.6,37,cuprate
Y1Ba2Cu2.94Zn0.06O6.75,37,cuprate
Y1Sr2Cu2.75Re0.25O7,37,cuprate
Y2Ba4Cu7O14.13,37,cuprate
Mg0.9Li0.1B2,36.916667,others
Mg0.6B2,36.9,others
Ba0.59K0.41Fe2As2,36.9,iron-based
Ba0.7Rb0.3Fe2As2,36.9,iron-based
La1.836Sr0.164Cu1O4,36.9,cuprate
Mg1.98Mn0.02B2,36.9,others
Ru0.975Sn0.025Sr2Gd1Cu2O8,36.9,cuprate
Sr0.875La0.125Cu1O2,36.9,cuprate
Ba0.7K0.3Fe2As2,36.85,iron-based
Sr1Cs1Fe4As4,36.8,iron-based
Ba1.2Sr0.8Yb1Cu3O6.61,36.7,cuprate
Mg0.98B2Al0.02,36.7,others
Mg0.99Cr0.01B2,36.7,others
Pb0.5Cu1Sr1La1O5.03,36.7,cuprate
Pb0.5Cu1Sr1La1O5.05,36.7,cuprate
Pb0.6Cu1Sr1La1O5.09,36.7,cuprate
Sr2Mg0.3Ti0.7Fe1As1O3,36.7,iron-based
Sr0.6Cs0.4Fe2As2,36.6,iron-based
Mg0.85Li0.15B2,36.6,others
Sr0.85Y0.15Cu1O2,36.6,cuprate
Sr0.9Y0.1Cu1O2,36.6,cuprate
Y1Ba1.5La0.5Cu3O7.22,36.6,cuprate
Ba0.5K0.5Ru0.2Fe1.8As2,36.5,iron-based
C0.9S0.1,36.5,others
La0.2Ca0.8Fe0.9671Co0.0329As2,36.5,iron-based
Fe1Sr2Gd1Cu2O7.58,36.5,cuprate
Sr0.6K0.4Fe2As2,36.5,iron-based
La1.75Sr0.25Cu0.94Ni0.06O4,36.5,cuprate
La1.85Sr0.15Cu0.98Li0.02O4,36.5,cuprate
Mg1.8Cu0.2B12,36.5,others
Eu1Rb1Fe4As4,36.5,iron-based
Y0.2Ca0.4Pr0.4Ba2Cu3O7,36.5,cuprate
Mg0.95B2Al0.05,36.466667,others
La1.75Sr0.25Cu0.94Co0.06O4,36.4,cuprate
Sm1Fe1As1O0.94F0.06,36.4,iron-based
Sm1Fe1P0.1As0.9O0.88F0.12,36.35,iron-based
Ce1Fe1As1O0.9F0.1,36.333333,iron-based
Ru0.99Ti0.01Sr2Gd1Cu2O8,36.3,cuprate
Sm0.9Pr0.1Ba2Cu3O6.75,36.3,cuprate
Mg1B1.96C0.04,36.25,others
Ce0.22Ca0.78Fe2As2,36.2,iron-based
Y0.3La0.7Fe1As1O0.85F0.15,36.2,iron-based
La1H0.46Fe1As1O0.54,36.2,iron-based
Mg0.97Co0.03B2,36.2,others
Mg0.5B2,36,others
Ba0.5K0.5Fe2As2O1,36,iron-based
Bi1.6Pb0.4Sr1.6La0.4Cu1O4,36,cuprate
Bi1.95Sr1.65La0.4Cu1O4,36,cuprate
Ca2Cu1Cl2.3O2,36,cuprate
Er1Ba2Cu2.76Zn0.24O6.89,36,cuprate
Sc2Ca4Ti3Fe2As2O13,36,iron-based
Ca5Mg1Ti3Fe2As2O9.5,36,iron-based
Sc2Ca5Ti2Fe2As2O10,36,iron-based
Ca6Ti2.68Fe2Al1.32As2O12,36,iron-based
Hg0.7Mo0.3Sr2Cu1O4,36,cuprate
Hg1Ba2Cu1O4.032,36,cuprate
Ho1Fe1As1O0.9F0.1,36,iron-based
La1.822Sr0.178Cu1O4,36,cuprate
La1.837Sr0.162Cu1O4,36,cuprate
La1.85Sr0.15Cu1O4.01,36,cuprate
La1H0.36Fe1As1O0.64,36,iron-based
La2Cu1O4.068,36,cuprate
La3Ca0.3Cd0.7Ba3Cu7O16.303,36,cuprate
Mg1Be0.2B1.8,36,others
Mg1B1.95C0.05,36,others
Na0.65Fe1.93S0.2Se1.8,36,iron-based
Nd1.3Ba1.5Ca0.2Cu3O6.952,36,cuprate
Nd1.3Ba1.5Sr0.2Cu3O6.917,36,cuprate
Pb0.5Cd0.5Sr1.6Ba0.4Ca0.5Y0.5Cu2O7,36,cuprate
Pr0.1La1.7Sr0.2Cu1O4,36,cuprate
Sm1H0.2Fe1P0.23As0.77O0.8,36,iron-based
Sr0.42K0.58Fe2As2,36,iron-based
Tm0.5Pr0.5Ba2Cu3O6.64,36,cuprate
Y0.5Pr0.5Ba1Sr1Cu3O6.9,36,cuprate
Y1Ba2.01Cu2.7Co0.3O6.8,36,cuprate
Y1Ba2Cu2.7Co0.3O7.11,36,cuprate
Y1Ba2Cu2.7Fe0.3O7.15,36,cuprate
Y2Ba4Cu7O14.04,36,cuprate
La1.8Nd0.2Cu1O4.086,35.9,cuprate
Mg0.983B2Al0.017,35.9,others
Pb0.01Mg0.99B2,35.9,others
Nd0.9Pr0.1Ba2Cu3O6.75,35.9,cuprate
Nd1.35Ba1.65Cu3O7.02,35.9,cuprate
Pb0.6Cu1Sr1La1O5.12,35.9,cuprate
Ba0.65Rb0.35Fe2As2,35.8,iron-based
Bi1.8Pb0.2Sr2Ca1Cu1.84Co0.16O8,35.8,cuprate
Mg0.93B2Al0.07,35.8,others
Y0.85Pr0.15Ba2Cu3O6.5,35.8,cuprate
Mg1B1.924C0.076,35.78,others
La0.3Ca0.7H1Fe1As1,35.7,iron-based
Ba0.6K0.4Fe2As2,35.66,iron-based
Y0.3La0.7Fe1As1O0.6,35.6,iron-based
La1.8Nd0.2Cu0.99Zn0.01O4.086,35.6,cuprate
Li0.8H1Fe1.2O1S0.22Se0.78,35.6,iron-based
Mg0.94Li0.06B1.96C0.04,35.6,others
Mg0.994Fe0.006B2,35.6,others
Bi1.95Sr1.65La0.4Cu1O6.311,35.5,cuprate
La1.76Sr0.24Cu0.94Mn0.06O4,35.5,cuprate
La1.868Sr0.132Cu1O4,35.5,cuprate
La1.8Sr0.2Cu1H0.1O4,35.5,cuprate
Pb0.02Mg0.98B2,35.5,others
Mg1B1.904C0.096,35.5,others
Y0.85Ca0.15Sr1.5Ba0.5Cu2.5B0.5O7,35.5,cuprate
Ba1Fe2As3,35.4,iron-based
La1.85Sr0.15Cu1H0.1O4,35.4,cuprate
La1.8Pr0.2Ca0.4Ba2Cu4.4O10.7348,35.4,cuprate
Hg1.4Tl0.6Ba2Y0.2Ca0.8Cu2O7.66,35.3,cuprate
La1.8Nd0.2Cu1O4.07,35.3,cuprate
Mg0.89Li0.11B2,35.3,others
Mg0.98Cr0.02B2,35.3,others
Pr1Fe1P0.1As0.9O0.9F0.1,35.2,iron-based
La0.2Ca0.8Fe0.9558Co0.0442As2,35.1,iron-based
La1.15Pt3Ca8.85Fe10As18,35.1,iron-based
Mg0.86B2Al0.14,35.1,others
Mg0.97Cr0.03B2,35.1,others
Sr1Rb1Fe4As4,35.1,iron-based
Ba0.68K0.32Fe1.954Co0.046As2,35,iron-based
Bi1.95Sr1.65Nd0.4Cu1O4,35,cuprate
Bi1.95Sr1.65Pr0.4Cu1O4,35,cuprate
C0.7N0.3Sr2Cu1O5.35,35,cuprate
Ca1Rb1Fe4As4,35,iron-based
Er1Ba2Cu3O6.15,35,cuprate
Eu1.4Ce0.6Sr2Ru1Cu2O10,35,cuprate
Eu1Cs1Fe4As4,35,iron-based
Ga1Sr2Y0.5Ca0.5Cu2O7,35,cuprate
Hg1Tl1Ba2Ca1Cu2O8,35,cuprate
La1.1Ba1.5Ca0.4Cu3O7.25,35,cuprate
La1.5Ba1.3Ca0.2Cu3O6.957,35,cuprate
La1.5Ba1.4Ca0.1Cu3O6.964,35,cuprate
La1.665Pr0.185Sr0.15Cu1O4,35,cuprate
La1.715Nd0.125Sr0.16Cu1O4,35,cuprate
La1.834Sr0.166Cu1O4,35,cuprate
La1H0.6Fe1As1O0.6,35,iron-based
La2Cu1O4.035,35,cuprate
Li0.8H1Fe1.2O1S0.28Se0.72,35,iron-based
Lu0.55Pr0.45Ba1.7Sr0.3Cu3O6.92,35,cuprate
Mg0.815B2Al0.024,35,others
Pb0.06Mg0.94B2,35,others
Mg1B1.896C0.104,35,others
Nd0.1La1.7Sr0.2Cu1O4,35,cuprate
Nd0.9Pr0.1Ba1Ca1Cu3O7,35,cuprate
Nd1.3Ba1.3Sr0.4O6.828,35,others
Nd1Ba1Ca1Cu3O7,35,cuprate
Nd1Fe1As1O0.92F0.08,35,iron-based
Nd2Ba4Cu7O15.38,35,cuprate
Sm0.96La0.84Sr0.2Cu1O4,35,cuprate
Sm1Ba1.85Pr0.15Cu3O7.02,35,cuprate
Sr0.83Nd0.17Cu1O2,35,cuprate
Sr1.5Ba0.5Y1Cu2.8Ti0.2O7,35,cuprate
Tl1Sr2Ca0.4Y0.6Cu2O7,35,cuprate
Y0.6Pr0.4Ba2Cu3O6.965,35,cuprate
Y0.7Ca0.3Ba2Cu3O6.12,35,cuprate
Y1Ba2Cu2.94Zn0.06O6.73,35,cuprate
Y1Ba2Cu2.95Zn0.05O6.72,35,cuprate
Y1Ba2Cu3F0.76O6,35,cuprate
Y1Sr0.4Ba1.6Cu2.5B0.5O7,35,cuprate
Y1Sr1.2Ba0.8Cu2.5B0.5O7,35,cuprate
Y1Sr2Cu2.7Ti0.3O7.224,35,cuprate
Yb0.8Ca0.2Ba0.8Sr0.4Cu3O6.85,35,cuprate
Eu2.17Ce0.5Sr1.33Cu2.5Co0.5O9.08,34.9,cuprate
La1.95Bi0.05Cu1O4.0635,34.9,cuprate
Pb0.5Cu1Sr0.8La1.2O5.1,34.9,cuprate
Hg0.85Re0.15Ba2Cu1O4.58,34.85,cuprate
Y0.75Ca0.25Ba2Cu3O6.008,34.85,cuprate
Y0.3La0.7Fe1As1O0.9F0.1,34.8,iron-based
La1.78Sr0.22Cu1O3.945,34.8,cuprate
La1.85Sr0.15Cu0.9975Co0.0025O4,34.8,cuprate
La1.85Sr0.15Cu0.9975Zn0.0025O4,34.8,cuprate
La1.8Nd0.2Cu1O4.071,34.8,cuprate
Pb0.6Cu1Sr0.8La1.2O5.11,34.8,cuprate
Tb1Fe1As1O0.75,34.8,iron-based
Yb0.5Pr0.5Ba2Cu3O6.9,34.8,cuprate
Ca0.2Ba1.55La1.25Cu3O7.03,34.7,cuprate
La2Cu1O4.017,34.7,cuprate
Mg0.91B2Al0.09,34.7,others
Mg0.978B2Al0.022,34.7,others
Mg0.99Fe0.01B2,34.7,others
Sr0.15La1.85Cu1O4,34.7,cuprate
Y0.85Ca0.15Ba2Cu2.8Zn0.2O6.74,34.6,cuprate
Ru0.95Rh0.05Sr2Gd1Cu2O8,34.575,cuprate
La1.85Sr0.15Cu0.995Ni0.005O4,34.503333,cuprate
La1.4Pt3Ca8.6Fe10As18,34.5,iron-based
Mg0.9Co0.1B2,34.5,others
Sm1Fe0.97Ni0.03As1O0.88F0.12,34.5,iron-based
Tb1Sr2Cu2.69Mo0.31O7,34.5,cuprate
Er0.5Pr0.5Ba2Cu3O6.82,34.4,cuprate
La1.73Sr0.27Cu0.94Ni0.06O4,34.4,cuprate
Ba0.5K0.5Fe1.92Zn0.08As2,34.3,iron-based
La1.35Pr0.5Sr0.15Cu1O4,34.3,cuprate
La1.943Sr0.178Cu1O4,34.3,cuprate
Mg0.9B2Al0.1,34.3,others
Nd1Ba2Cu3O6.65,34.3,cuprate
Ba0.5K0.5Fe1.84Zn0.16As2,34.2,iron-based
La1.82Nd0.03Sr0.15Cu1O4,34.2,cuprate
Sm1Ba2Cu3O6.62,34.2,cuprate
La1.85Sr0.12Ca0.016Ba0.014Cu1O3.99,34.1,cuprate
Nd1Fe1P0.2As0.8O0.9F0.1,34.1,iron-based
Bi1Ba0.5K0.5O3,34,others
Ba0.6Rb0.4Fe2As2,34,iron-based