Formula,Tc,Materials_family
Ba1.6Sr0.4Yb0.75Ca0.25Cu3O6.3,34,cuprate
Ba1.6Sr0.4Yb1Cu3O6.53,34,cuprate
Bi1.95Sr1.65La0.4Cu1O6.298,34,cuprate
Bi2Sr2Gd1.64Ce0.36Cu2O10.24,34,cuprate
Ca0.34Na0.66Fe2As2,34,iron-based
La0.16Ca0.84Fe1As2,34,iron-based
La0.1Ca0.9Fe1As2,34,iron-based
Er1Ba2Cu2.28Co0.18O6.74,34,cuprate
Er1Ba2Cu2.82Co0.18O6.74,34,cuprate
Eu0.6Pr0.4Ba1.5Sr0.5Cu3O6.89,34,cuprate
Eu1.5Ce0.5Sr2Ru1Cu2O10,34,cuprate
La0.5Ca0.2Pr0.3Ba1.5Sr0.5Cu3O6.829,34,cuprate
Y0.2La0.8Fe1As1O0.7,34,iron-based
La1.1Ba1.5Ca0.4Cu3O6.76,34,cuprate
La1.48Pr0.37Sr0.15Cu1O4,34,cuprate
La1.73Sr0.27Cu0.94Co0.06O4,34,cuprate
La1.77Sr0.23Cu0.94Mn0.06O4,34,cuprate
La1.82Sr0.18Cu1O3.994,34,cuprate
La1.83Ca0.17Cu1O4,34,cuprate
La1.84Ca0.16Cu1O4,34,cuprate
La2Cu1O4.044,34,cuprate
Li0.8H1Fe1.2Se1,34,iron-based
Mg0.75Co0.25B2,34,others
Mg0.8Li0.2B2,34,others
Mg0.8Zn0.1B2Al0.1,34,others
Mg0.956B2Al0.044,34,others
Mg0.9Fe0.1B2,34,others
Pb0.1Mg0.9B2,34,others
Nd0.7Pr0.3Ba1Sr1Cu3O6.87,34,cuprate
Nd1Ru0.15Fe0.85As1O0.89F0.11,34,iron-based
Ru1Sr2Gd1.4Ce0.6Cu2O9.54,34,cuprate
Sm0.9La0.9Sr0.2Cu1O4,34,cuprate
Tl1Ba1.6La0.4Cu1O5,34,cuprate
Tl1La1Sr1Cu1O5,34,cuprate
Y1Ba1Sr1Cu3O6.685,34,cuprate
Y1Sr2Cu2.65Fe0.35O6.7,34,cuprate
Y2Ba4Cu7O14.16,34,cuprate
Pt4.3Ca10Fe9.7As18,33.9,iron-based
Pb0.6Cu1Sr1.1La0.9O5.07,33.9,cuprate
Y0.6Pr0.4Ba2Cu3O6.8,33.9,cuprate
Y0.6Pr0.4Cu2.85Re0.15O7,33.9,cuprate
Ba0.6Na0.4Fe2As2,33.85,iron-based
Mg1B1.89C0.11,33.85,others
Tb1Fe1As1O0.8,33.85,iron-based
La1.85Sr0.15Cu0.996Zn0.004O4,33.825,cuprate
Bi1.8Pb0.2Sr2Ca1Cu1.92Fe0.08O8,33.8,cuprate
La1.812Sr0.188Cu1O4,33.7,cuprate
Mg0.75Li0.25B2,33.7,others
Pt5.8Ca10Fe8.2As18,33.65,iron-based
La1.85Sr0.15Cu0.997Fe0.003O4,33.6,cuprate
Y0.55Pr0.45Ba2Cu3O6.98,33.6,cuprate
La1.855Sr0.145Cu1O4,33.55,cuprate
Mg0.92B2Al0.08,33.55,others
Ba0.5K0.5Fe1.88Zn0.12As2,33.5,iron-based
Bi2Ca2.5Nd0.5Cu2O8.43,33.5,cuprate
Cu2Re0.25Sr2Y1.3Ce0.7O9.06,33.5,cuprate
La1.725Nd0.125Sr0.15Cu1O4,33.5,cuprate
La1.85Sr0.15Cu0.97Li0.03O4,33.5,cuprate
La1Fe1As1O0.68F0.28,33.5,iron-based
Mg0.99B2Sn0.01,33.5,others
Pr0.2Ca0.8Ba1La1Cu3O7.1,33.5,cuprate
Ba0.72K0.28Fe2As2,33.45,iron-based
Mg0.988Fe0.012B2,33.45,others
Ca0.25Na0.75Fe2As2,33.4,iron-based
Mg0.99Mn0.01B2,33.4,others
Pb2Cu2La1.1O6.28,33.4,cuprate
La1.943Sr0.13Cu1O4,33.3,cuprate
Mg1B1.874C0.126,33.3,others
Y1Ba1.9La0.1Cu3.95Zn0.05O8,33.3,cuprate
Ce0.12Ca0.88Fe2As2,33.2,iron-based
La1.815Sr0.185Cu1O3.964,33.2,cuprate
La1.84Sr0.05Ca0.11Cu1O4,33.2,cuprate
Ir0.02Mg0.98B2,33.2,others
Pb2Sr0.9La1.1Cu2O6.31,33.2,cuprate
Mg1B1.868C0.132,33.15,others
Ca1K1Fe4As4,33.1,iron-based
La1.895Ba0.105Cu1O4,33.1,cuprate
Mo0.33Cu2.67Sr2Y1O7.41,33,cuprate
Bi1.95Sr1.75La0.3Cu1O4,33,cuprate
Bi2Sr1.56La0.44Cu1O6,33,cuprate
C0.8N0.2Sr2Cu1O5.3,33,cuprate
Ca0.32Na0.68Fe2As2,33,iron-based
Ca0.33Na0.66Fe2As2,33,iron-based
Cs2Rb1C60,33,others
Eu0.1La1.7Sr0.2Cu1O4,33,cuprate
Eu1.3Ce0.7Sr2Ru1Cu2O10,33,cuprate
Sc2Ca5Ti2Fe2As2O10.5,33,iron-based
Gd1Ba2Cu2.7Co0.3O6.9,33,cuprate
La0.75Ca0.05Pr0.2Ba1.5Sr0.5Cu3O6.886,33,cuprate
La1.295Pr0.555Sr0.15Cu1O4,33,cuprate
La1.71Sr0.29Cu0.94Co0.06O4,33,cuprate
La1.81Sr0.19Cu0.98Ti0.02O4,33,cuprate
La1.82Ca0.18Cu1O4,33,cuprate
La1.82Sr0.18Cu1O3.987,33,cuprate
La1.835Sr0.165Cu0.995Ni0.005O4,33,cuprate
La1.855Sr0.145Cu0.99Ni0.01O4,33,cuprate
La1.85Sr0.15Cu0.995Co0.005O4,33,cuprate
La1.862Sr0.138Cu1O4,33,cuprate
La1.865Sr0.135Cu1O4,33,cuprate
La1.86K0.14Cu1O3.97,33,cuprate
La1.883Sr0.117Cu1O4,33,cuprate
Mg0.927B1Al0.073,33,others
Mg1B1.84C0.16,33,others
Nd1.3Ba1.7Cu3O6.987,33,cuprate
Ru1Sr2Eu1.5Ce0.5Cu2O9.6,33,cuprate
Sm1Fe1As1O0.925F0.075,33,iron-based
Sm1Fe1As1O0.93F0.07,33,iron-based
Tl0.6La1Sr1Cu1.4O5,33,cuprate
Y0.65Pr0.35Ba2Cu3O6.95,33,cuprate
Y0.8Pr0.2Ba2Cu3.95Fe0.05O8,33,cuprate
Y1.01Ba2.03Cu2.808Li0.192O6.6,33,cuprate
Y1Ba2Cu2.9Fe0.1O6.72,33,cuprate
Y1Sr2Cu2.75W0.25O6.9,33,cuprate
Y1Sr2Cu2.7Re0.3O7.1,33,cuprate
Mg0.97Fe0.03B2,32.966667,others
Mg1Be0.3B1.7,32.9,others
Mg1B1.88C0.12,32.9,others
Y1Ba1.9La0.1Cu3O6.5,32.9,cuprate
La1.87Sr0.13Cu0.98Li0.02O4,32.85,cuprate
Mg1B1.9C0.1,32.843636,others
Ba0.5Na0.5Fe2As2,32.8,iron-based
La1.13Pt3Ca8.87Fe10As18,32.8,iron-based
La1.77Sr0.23Cu0.96Ti0.04O4,32.8,cuprate
Sm1Ba2Cu3O6.65,32.8,cuprate
Mg0.815B2Al0.09,32.7,others
Bi1.95Sr1.65La0.4Cu1O6.28,32.6,cuprate
K0.85Fe2Se1.8,32.6,iron-based
La0.85Pr1Sr0.15Cu1O4,32.6,cuprate
La1.85Sr0.15Cu0.993Ni0.007O4,32.6,cuprate
Nd1Fe1As1O0.8F0.2,32.6,iron-based
Rb0.77Fe1.61Se2,32.6,iron-based
Sr0.7Y0.3Cu1O2,32.6,cuprate
Ba0.55K0.45Fe1.95Co0.05As2,32.5,iron-based
Pr0.14Ca0.86Fe2As2,32.5,iron-based
Eu0.51K0.49Fe2As2,32.5,iron-based
K0.83Fe1.83Se2,32.5,iron-based
Y0.2La0.8Fe1As1O0.6,32.5,iron-based
La1.71Sr0.29Cu0.94Fe0.06O4,32.5,cuprate
La1.73Sr0.27Cu0.94Fe0.06O4,32.5,cuprate
La1.77Sr0.23Cu0.94Co0.06O4,32.5,cuprate
La1.84Sr0.16Cu0.99Fe0.01O4,32.5,cuprate
Ru0.95Ir0.05Sr2Gd1Cu2O8,32.5,cuprate
Tl0.58Rb0.42Fe1.72Se2,32.5,iron-based
K0.8Fe1.5Se2,32.4,iron-based
Mg0.915B2Al0.085,32.4,others
Rb0.74Fe1.6Se2,32.4,iron-based
Rb0.796Fe1.596Se2,32.4,iron-based
Rb0.801Fe1.602Se2,32.4,iron-based
Rb0.8Fe1.6Se2,32.4,iron-based
Y0.8Ca0.2Ba2Cu3O6.41,32.4,cuprate
Y1Ba2Cu2.885Zn0.195O7,32.4,cuprate
La1.56Pt3Ca8.44Fe10As18,32.3,iron-based
La1.85Sr0.15Cu0.98Ti0.02O4,32.3,cuprate
La1.85Sr0.15Cu0.995Zn0.005O4,32.3,cuprate
Mg0.96Mn0.04B2,32.3,others
Pt4.1Ca10Fe9.9As18,32.2,iron-based
La1.85Sr0.09Ca0.034Ba0.026Cu1O3.99,32.2,cuprate
Ru0.95Ti0.05Sr2Gd1Cu2O8,32.2,cuprate
Ru1Sr2Gd0.9Y0.1Cu2O8,32.2,cuprate
Y1Ba1.6La0.4Cu3O7,32.2,cuprate
Eu0.5K0.5Fe2As2,32.166667,iron-based
Ba0.74K0.26Fe2As2,32,iron-based
Bi1.95Sr1.75Pr0.3Cu1O4,32,cuprate
Bi2Sr1.6La0.4Cu1O6,32,cuprate
Cu6.5Sr2Ca5Cr0.5O15.17,32,cuprate
Er1Ba2Cu2.67Zn0.24Fe0.09O6.94,32,cuprate
Er1Ba2Cu2.7Zn0.3O6.86,32,cuprate
Eu0.7Na0.3Fe2As2,32,iron-based
Eu0.9Sr0.1Ba1.6Pr0.1Cu3O6.58,32,cuprate
Eu1.6Ce0.4Sr2Ru1Cu2O10,32,cuprate
Eu1Ba1.2Pr0.3Sr0.5Cu3O6.89,32,cuprate
Ca6Ti3Fe2Al1As2O11,32,iron-based
Gd1Ba1.5Sr0.5Cu3O6.72,32,cuprate
H0.2La1.8Sr0.2Cu1O4,32,cuprate
K0.65Fe1.41Se2,32,iron-based
K0.68Fe1.79Se2,32,iron-based
K0.74Fe1.67S0.4Se1.61,32,iron-based
K0.82Fe1.63Se2,32,iron-based
K0.86Fe1.66Se2,32,iron-based
K0.8Fe1.78Se2,32,iron-based
K0.8Mn0.067Fe1.933Se2,32,iron-based
Y0.2La0.8Fe1As1O0.9F0.1,32,iron-based
La0.925Pr0.925Sr0.15Cu1O4,32,cuprate
La1.13Pr0.72Sr0.15Cu1O4,32,cuprate
La1.81Ca0.19Cu1O4,32,cuprate
La1.81Ho0.04Sr0.15Cu1O4,32,cuprate
La1.835Nd0.04Sr0.125Cu1O4,32,cuprate
La1.85Sr0.038Ba0.112Cu1O4,32,cuprate
La1.86Ca0.14Cu1O4,32,cuprate
La1.906Ba0.094Cu1O4,32,cuprate
La1.9Sr0.1Cu1O3.997,32,cuprate
La1H0.58Fe1As1O0.58,32,iron-based
La2Cu1O4.005,32,cuprate
La2Cu1O4.012,32,cuprate
La2Cu1O4.05,32,cuprate
Li0.8H1Fe1.2O1S0.41Se0.59,32,iron-based
Mg0.75Fe0.25B2,32,others
Mg0.815B2Al0.092,32,others
Mg1B1.834C0.166,32,others
Na0.65Fe1.93S0.4Se1.6,32,iron-based
Nd1.3Ba1.7Cu3O7.14,32,cuprate
Pb0.5Sr1.75Nd0.25Eu1.5Ce0.5Cu2.5O9,32,cuprate
Pb0.6Cu1Sr1La1O5.15,32,cuprate
Rb0.75Fe1.6Se2,32,iron-based
Rb0.8Fe1.68Se2,32,iron-based
Rb2Fe4Se5,32,iron-based
Sm0.1La1.7Sr0.2Cu1O4,32,cuprate
Sr0.2La1.8Cu0.98Mn0.02O4,32,cuprate
Sr1.5Ba0.5Y1Cu2.8Ga0.2O6.96,32,cuprate
Sr2Cu1C0.85B0.15O5,32,cuprate
Tl0.47Rb0.34Fe1.63Se2,32,iron-based
Tl0.4Rb0.4Fe1.6Se2,32,iron-based
Tl0.6Rb0.4Fe1.67Se2,32,iron-based
Tl1Sr0.7Ca0.3La1Cu1O5,32,cuprate
Tl1Sr1La1Cu1O5,32,cuprate
Tl1Sr1La1Cu1O8,32,cuprate
Y0.6Pr0.4Ba2Cu3O6.9,32,cuprate
Y0.6Pr0.4Ba2Cu3O6.96,32,cuprate
Y1Ba2Cu2.64Fe0.36O7,32,cuprate
Y1Ba2Cu2.64Fe0.36O7.12,32,cuprate
Mg0.8Li0.1B2Al0.1,31.95,others
K0.58Fe1.56Se2,31.9,iron-based
K0.8Mn0.049Fe1.951Se2,31.9,iron-based
Pb0.5Cu1Sr1La1O5.1,31.9,cuprate
Sr0.85La0.15Cu1O2,31.9,cuprate
Rb0.8Fe1.7Se2,31.875,iron-based
Pr1.52Pt3Ca8.48Fe10As18,31.8,iron-based
La1.79Sr0.21Cu0.94Co0.06O4,31.8,cuprate
La1.81Sr0.19Cu0.94Co0.06O4,31.8,cuprate
Sm1.39Ba1.61Cu3O7.07,31.8,cuprate
Tl0.4Rb0.4Fe1.67Se2,31.8,iron-based
La1.75Nd0.1Sr0.15Cu1O4,31.75,cuprate
La0.281Ca0.719Fe2As2,31.7,iron-based
La1.842Nd0.008Sr0.036Ba0.114Cu1O3.98,31.7,cuprate
La1.842Nd0.008Sr0.036Ba0.114Cu1O4,31.7,cuprate
La1.875Ba0.04Sr0.085Cu1O4,31.7,cuprate
La1.81Sr0.15Ho0.04Cu1O4,31.65,cuprate
Ca1Cs1Fe4As4,31.6,iron-based
La1.798Nd0.052Ca0.15Cu1O3.96,31.6,cuprate
La1.798Nd0.052Ca0.15Cu1O4,31.6,cuprate
Pb0.6Cu1Sr0.9La1.1O5.18,31.6,cuprate
Mg0.7Li0.3B2,31.55,others
Bi1Ba0.61K0.39O3,31.5,others
Cu2W0.25Sr2Y1.3Ce0.7O8.81,31.5,cuprate
K0.8Fe1.7Se2,31.5,iron-based
La1.77Sr0.23Cu0.94Ni0.06O4,31.5,cuprate
Mg0.5Co0.5B2,31.5,others
Mg0.85B2Al0.15,31.5,others
Sr4V2Fe2As2O6,31.5,iron-based
Tl1Sr2Ca1Cu2O6.837,31.5,cuprate
Y1Ba2Cu3.84Zn0.16O8,31.5,cuprate
K0.73Fe1.44S0.32Se1.68,31.4,iron-based
Y0.5La0.5Fe1As1O0.9F0.1,31.4,iron-based
La0.65Pr1.2Sr0.15Cu1O4,31.4,cuprate
Nd0.8Pr0.2Ba2Cu3O7,31.4,cuprate
Rb0.8Fe2Se2,31.4,iron-based
K0.8Fe2Se2,31.364286,iron-based
Tl0.4Rb0.4Fe1.7Se2,31.35,iron-based
Tl0.4Rb0.4Fe2Se2,31.35,iron-based
Ce1H0.07Fe1As1O0.93,31.3,iron-based
Nd1.8Cu1O4,31.3,cuprate
Pb2Cu2La1.1O6.24,31.3,cuprate
Rb0.88Fe1.81Se2,31.3,iron-based
Sm1Mn0.035Fe0.965As1O0.89F0.11,31.3,iron-based
Sm1Mn0.03Fe0.97As1O0.88F0.12,31.3,iron-based
Ba0.65Na0.35Fe2As2,31.25,iron-based
Ba0.4K0.6Fe2As2,31.2,iron-based
Bi1Ba0.595K0.405O3,31.2,others
Bi2Sr1.6La0.4Cu1O6.36,31.2,cuprate
K0.8Fe1.76Se2,31.15,iron-based
Cs1Rb2C60,31.15,others
La1.812Nd0.038Sr0.026Ba0.124Cu1O4,31.1,cuprate
La1.875Ba0.005Sr0.12Cu1O4,31.1,cuprate
Bi1Ba0.59K0.41O3,31,others
Ba0.64Na0.36Fe2As2,31,iron-based
Bi0.066Mo0.264Cu2.67Sr2Y1O7.32,31,cuprate
Bi2Sr2Ca0.5Y0.5Cu2I1O8,31,cuprate
C0.7N0.3Sr2Cu1O5.45,31,cuprate
C0.7N0.3Sr2Cu1O5.55,31,cuprate
C0.8N0.2Sr2Cu1O5.35,31,cuprate
C0.8N0.2Sr2Cu1O5.45,31,cuprate
Ca2Cu1Cl2.25O2,31,cuprate
Dy1Ba2Cu2.6Ni0.4O6.83,31,cuprate
Er1Ba2Cu2.76Co0.24O6.75,31,cuprate
Sc2.01Ca4Ti0.99Fe2As2O7.5,31,iron-based
K0.64Fe1.44Se2,31,iron-based
K0.74Fe1.66Se2,31,iron-based
K0.75Fe1.68Se2,31,iron-based
K0.8Mn0.021Fe1.979Se2,31,iron-based
K0.8Mn0.01Fe1.99Se2,31,iron-based
La1.69Sr0.31Cu0.94Co0.06O4,31,cuprate
La1.96Na0.4Cu1O4,31,cuprate
La2Cu1O4.13,31,cuprate
Pb0.6Cu1Sr1.1La0.9O5.12,31,cuprate
Sr2Cu1C0.86B0.14O5,31,cuprate
Tl0.7Pb0.3Ca1Sr2Cu2O7,31,cuprate
Y1Ba2Cu2.6Fe0.4O7,31,cuprate
Y1Ba2Cu3.928Zn0.072O8,31,cuprate
Bi1.8Pb0.2Sr2Ca1Cu1.88Fe0.12O8,30.9,cuprate
Rb0.653Fe1.532Se2,30.9,iron-based
La1.85Sr0.15Cu0.995Fe0.005O4,30.82,cuprate
Mg0.81B2Al0.19,30.8,others
Mg1B1.826C0.174,30.8,others
Bi1Ba0.613K0.387O3,30.7,others
La2Cu1O4.034,30.7,cuprate
Mg0.65Li0.175B2Al0.175,30.7,others
Nd1.7Cu1O4,30.7,cuprate
Y0.55Pr0.45Ba2Cu3O6.65,30.7,cuprate
Y1Ba2Cu2.8Zn0.2O6.85,30.69,cuprate
La1.85Sr0.15Cu0.99Ni0.01O4,30.675,cuprate
Bi2Sr1.6La0.4Cu1O6.29,30.6,cuprate
Gd0.7Pr0.3Ba2Cu3O6.95,30.6,cuprate
La1.73Sr0.27Cu1O3.913,30.6,cuprate
La1.85Sr0.15Cu0.9925Co0.0075O4,30.6,cuprate
Sm0.9Pr0.1Ba2Cu3O6.65,30.6,cuprate
La1.83Sr0.17Cu0.99Ru0.01O4,30.55,cuprate
Bi1.95Sr1.65La0.4Cu1O6.334,30.5,cuprate
Ce1.62Pt3Ca8.38Fe10As18,30.5,iron-based
La1.75Ca0.15Nd0.1Cu1O4,30.5,cuprate
La1.75Sr0.25Cu0.94Fe0.06O4,30.5,cuprate
La1.77Sr0.23Cu0.94Fe0.06O4,30.5,cuprate
La1.798Sr0.202Cu1O4,30.5,cuprate
Pr2Ba4Cu7O14.06,30.5,cuprate
Bi1Ba0.635K0.365O3,30.4,others
Ce1.68Pt3Ca8.32Fe10As18,30.4,iron-based
K0.79Fe1.64Se2,30.4,iron-based
La1.71Sr0.29Cu0.94Ni0.06O4,30.4,cuprate
La1.84Sr0.16Cu0.99Mn0.01O4,30.4,cuprate
La1.85Sr0.15Cu0.996Al0.004O4,30.4,cuprate
Tl0.54K0.46Fe1.88Se2,30.4,iron-based
Nd2.1Cu1O4,30.35,cuprate
Mg1B1.81C0.19,30.335,others
Ba0.5K0.5Fe1.9Co0.1As2,30.31,iron-based
Y0.2La0.8Fe1As1O0.89F0.11,30.3,iron-based
La1.909Ce0.091Cu1O4,30.3,cuprate
Pb2Sr0.9La1.1Cu2O6.65,30.3,cuprate
Ru0.8Sn0.2Sr2Eu1Cu2O8,30.3,cuprate
Tl0.59Cs0.26Fe1.9Se2,30.3,iron-based
Ba1Fe2P0.7As1.3,30.25,iron-based
Ca3Fe2Al2As2O5,30.2,iron-based
La1.8Sr0.2Cu0.9975Zn0.0025O4,30.2,cuprate
Mg0.75B2Al0.25,30.2,others
Nd0.8Pr0.2Ba2Cu3O6.85,30.2,cuprate
Ba0.55K0.45Fe2As2,30.1625,iron-based
Ba0.5K0.5Fe1.9Zn0.1As2,30.15,iron-based
Mg0.91Li0.09B1.84C0.16,30.15,others
Ba1Fe2P0.48As1.52,30.1,iron-based
Bi1.95Sr1.65La0.4Cu1F0.2O6,30.1,cuprate
La1.83Sr0.17Cu0.99Ni0.01O4,30.1,cuprate
La1Fe1As0.95Sb0.05O0.8F0.2,30.1,iron-based
La1H0.24Fe1As1O0.76,30.1,iron-based
Nd1Fe0.95Co0.05As1O0.89F0.11,30.1,iron-based
Y1Ba2Cu3.924Zn0.076O8,30.1,cuprate
K0.86Fe2Se1.82,30.05,iron-based
La1.875Sr0.125Cu1O4,30.04,cuprate
La0.19Ca0.81Fe1As2,30.033333,iron-based
Pb1Ba0.9K0.1O3,30,others
Ba1.6Sr0.4Yb0.95Ca0.05Cu3O6.56,30,cuprate
Bi0.5La1Y0.5Sr1Cu2O6.04,30,cuprate
Bi1.95Sr1.75Nd0.3Cu1O4,30,cuprate
Bi2Sr1.7La0.3Cu1O6,30,cuprate
Bi2Sr2Ca0.6Gd0.4Cu2O8,30,cuprate
Bi2Sr4Cu2C1O11,30,cuprate
Ca1.85Cu1Cl2O2,30,cuprate
Pt4.2Ca10Fe9.8As18,30,iron-based
Ca2Cu1Cl2.2O2,30,cuprate
D2S1,30,others
Eu0.48K0.52Fe2As2,30,iron-based
Eu1.2Ce0.8Sr2Ru1Cu2O10,30,cuprate
Eu1.6Sr1.8Ce0.6Cu3O8.6,30,cuprate
Eu1Ba1.3Pr0.3Sr0.4Cu3O7,30,cuprate
Gd0.1La1.7Sr0.2Cu1O4,30,cuprate
Hg0.5Fe0.5Sr2Y0.8Ca0.2Cu2O6.72,30,cuprate
La1.5Ba1Ca0.5Cu3O6.801,30,cuprate
La1.65Ca0.15Nd0.2Cu1O4,30,cuprate
La1.69Sr0.31Cu0.92Ti0.08O4,30,cuprate
La1.73Sr0.27Cu0.94Ti0.06O4,30,cuprate
La1.776Nd0.074Sr0.014Ba0.136Cu1O4,30,cuprate
La1.776Nd0.074Sr0.014Ba0.136Cu1O4.03,30,cuprate
La1.7Gd1.3Ca1Ba2.2Sr0.8Cu6.44In0.56O16.6,30,cuprate
La1.85Sr0.06Ca0.05Ba0.04Cu1O3.99,30,cuprate
La1.85Sr0.12Ca0.016Ba0.014Cu1O4,30,cuprate
La1.85Sr0.15Cu0.991Ni0.009O4,30,cuprate
La1.85Sr0.15Cu0.996Co0.004O4,30,cuprate
La1.8Ca0.2Cu1O4,30,cuprate
La1Ba1Ca1Cu2.8Ni0.2O6.837,30,cuprate
La2Cu1O4.032,30,cuprate
Sc0.12Mg0.88B2,30,others
Mg0.95Mn0.05B2,30,others
Mg1B1.96F0.04,30,others
Pb0.5Ca1Sr2Y0.5Cu2O6.93,30,cuprate
Ru0.5Nb0.5Sr2Gd1.4Ce0.6Cu2O9.64,30,cuprate
Ru0.95Sn0.05Sr2Gd1Cu2O8,30,cuprate
Ru0.9Sr2Y1Cu2.1O7.9,30,cuprate
Sm1La0.85Sr0.15Cu1O3.98,30,cuprate
Sr0.2La1.8Cu0.95Fe0.05O4,30,cuprate
Sr0.9La0.1Cu0.99Ni0.01O2,30,cuprate
Sr2Cu1C0.82B0.12O5,30,cuprate
Sr2Mg0.1V0.9Fe1As1O3,30,iron-based
Tl0.4La1Sr1Cu1.6O5,30,cuprate
Tl1Ba0.3Sr0.7La1Cu1O5,30,cuprate
Tl1Sr1La1Cu1O5.09,30,cuprate
Tm1.83Ca0.17Cu1O3.99,30,cuprate
Tm1.83Ca0.17Cu1O4,30,cuprate
Y0.85Ca0.15Ba2Cu2.55Co0.45O7.08,30,cuprate
Y1Ba1.5La0.5Cu3O7.1,30,cuprate
Y1Ba2.02Cu2.18Zn0.82O7,30,cuprate
Y1Ba2Cu2.91Zn0.09O6.77,30,cuprate
Y1Ba2Cu2.94Fe0.06H1O7,30,cuprate
Yb0.5Pr0.5Ba1.7Sr0.3Cu3O6.93,30,cuprate
Bi1Ba0.7K0.3O3,29.9,others
Ca0.1Ba1.65La1.25Cu3O7.03,29.9,cuprate
Dy1Ba1Sr1Cu3O6.7,29.9,cuprate
La1.65Sr0.35Cu0.9Ti0.1O4,29.9,cuprate
Mg0.89Li0.11B1.88C0.12,29.9,others
La1.85Sr0.15Cu0.995Ga0.005O4,29.8,cuprate
Ru0.925Rh0.075Sr2Gd1Cu2O8,29.8,cuprate
Tl0.75K0.25Fe1.84Se2,29.8,iron-based
Y1Ba2Cu2.97Zn0.03O6.47,29.8,cuprate
Fe0.5Ba1Sr1Yb1Cu2.5O7.432,29.7,cuprate
La1.887Sr0.113Cu1O4,29.7,cuprate
La2Cu1O4.047,29.7,cuprate
La1.875Ba0.025Sr0.1Cu1O4,29.65,cuprate
La0.55Pr1.3Sr0.15Cu1O4,29.6,cuprate
La1.825Sr0.175Cu0.99Ru0.01O4,29.6,cuprate
La1.85Sr0.15Cu0.9Mg0.1O4,29.6,cuprate
Cs1Na2H12C60N4,29.6,others
Bi1Ba0.63K0.37O3,29.585714,others
Bi1Ba0.62K0.38O3.1,29.5,others
Tl2.4Cs1.2C60,29.5,others
K0.8Fe2Se1.96,29.5,iron-based
La1.795Nd0.08Sr0.125Cu1O4,29.5,cuprate
La1.84Sr0.16Cu0.99Co0.01O4,29.5,cuprate
La1.9Sr0.1Cu1O3.98,29.5,cuprate
Mg0.95Fe0.05B2,29.5,others
Nd1Fe1P0.3As0.7O0.9F0.1,29.5,iron-based
Rb0.76Fe1.62Se2,29.5,iron-based
La2Pt3.3Ca8Fe9.7As18,29.4,iron-based
Eu1Ba2Cu2.7Co0.3O6.95,29.4,cuprate
La1.736Nd0.114Ca0.138Ba0.012Cu1O4.02,29.4,cuprate
La1.736Nd0.117Ca0.138Ba0.012Cu1O4,29.4,cuprate
La1.85Sr0.15Cu0.996Fe0.004O4,29.4,cuprate
La1.85Sr0.15Cu0.992Zn0.008O4,29.375,cuprate
Bi1Ba0.7K0.6O3,29.35,others
La2Cu0.99Zn0.01O4.099,29.3,cuprate
Cs0.8Fe1.7Se2,29.2,iron-based
Cs0.8Fe2Se2,29.2,iron-based
Eu1.007La0.793Sr0.2Cu1O4,29.2,cuprate
La1.889Sr0.111Cu1O4,29.2,cuprate
La1.89Sr0.11Cu1O3.986,29.2,cuprate
Pr1Fe1P0.2As0.8O0.9F0.1,29.2,iron-based
Ru0.925Ti0.075Sr2Gd1Cu2O8,29.2,cuprate
Y0.55Pr0.45Ba2Cu3O7.01,29.2,cuprate
Ba1Fe2P0.64As1.36,29.1,iron-based
La2Cu1O4.054,29.1,cuprate
Bi1Ba0.644K0.356O3,29,others
Bi1Ba0.6K0.4O2.977,29,others
Bi1Ba0.6Rb0.4O3,29,others
Bi0.132Mo0.198Cu2.67Sr2Y1O7.2,29,cuprate
Bi1.95Sr1.65La0.4Cu1F0.4O5.8,29,cuprate
Hg3.3Cs3C60,29,others
Dy2Ba4Cu7O14.61,29,cuprate
Eu0.6Pr0.4Ba1.6Sr0.4Cu3O7,29,cuprate
Eu1Ba1.4Pr0.3Sr0.3Cu3O6.92,29,cuprate
Eu1Fe2P0.42As1.58,29,iron-based
Eu1Fe2P0.4As1.6,29,iron-based
Sr4Mg0.6Ti1.4Fe2As2O6,29,iron-based
La1.67Sr0.33Cu0.94Co0.06O4,29,cuprate
La1.736Nd0.116Ba0.15Cu1O4,29,cuprate
La1.736Nd0.116Ba0.15Cu1O4.03,29,cuprate
La1.81Sr0.19Cu0.995Zn0.005O4,29,cuprate
La1.82Sr0.18Cu0.97Fe0.03O4,29,cuprate
La1.858Ba0.142Cu1O4,29,cuprate
La1.898Ba0.102Cu1O4,29,cuprate
La1.905Ba0.095Cu1O4,29,cuprate
La1.9Sr0.1Cu1O4.01,29,cuprate
Nd1Ba2Cu3O6.67,29,cuprate
Sm1Ba2Cu2.9Zn0.1O6.83,29,cuprate
Sr0.2La1.8Cu0.99Zn0.01O4,29,cuprate
Y1Ba2Cu2.9Ni0.1O6.71,29,cuprate
Y1Sr2Cu2.65Mo0.35O7.2,29,cuprate
Bi1Ba0.625K0.375O3,28.966667,others
Sr1Fe2P0.6As1.4,28.933333,iron-based
La1.87Sr0.13Cu0.9975Zn0.0025O4,28.92,cuprate
Pr0.059Ca0.941Fe2As2,28.9,iron-based
Y0.2La0.8Mn0.003Fe0.997As1O0.89F0.11,28.9,iron-based
La1.9Sr0.1Cu1H0.1O4,28.9,cuprate
Tm0.5Pr0.5Ba2Cu3O6.95,28.9,cuprate
Bi1Ba0.584K0.416O3,28.8,others
Sm1La0.8Sr0.2Cu1O3.95,28.8,cuprate
Mg0.8B2Al0.2,28.71,others
Ba0.4Na0.6Fe2As2,28.7,iron-based
Eu0.56K0.44Fe2As2,28.7,iron-based
Eu1Fe1.4P0.6As2,28.7,others
La1.85Sr0.15Cu0.9925Zn0.0075O4,28.7,cuprate
La1H0.08Fe1As1O0.92,28.7,iron-based
Pb0.6Cu1Sr0.8La1.2O5.06,28.7,cuprate
Er0.5Pr0.5Ba2Cu3O7,28.6,cuprate
La1.81Sr0.19Cu0.94Fe0.06O4,28.6,cuprate
La1.8Sr0.2Cu0.9952Zn0.0048O4,28.6,cuprate
La1Fe1As0.9Sb0.1O0.8F0.2,28.6,iron-based
Mg0.7Zn0.15B2Al0.15,28.6,others
Ba1Fe2P0.66As1.34,28.575,iron-based
Mg0.7Li0.15B2Al0.15,28.55,others
Bi1Ba0.64K0.36O3,28.5,others
Bi2Sr1.43La0.57Cu1O6,28.5,cuprate
Ca1.5Na0.5Cu1Cl2O2,28.5,cuprate
Cs0.8Fe2Se1.96,28.5,iron-based
La1.845Nd0.04Sr0.115Cu1O4,28.5,cuprate
La1.85Sr0.09Ca0.034Ba0.026Cu1O4,28.5,cuprate
La1.891Ce0.109Cu1O4,28.5,cuprate
Mg0.9Li0.1B1.82C0.18,28.5,others
Y0.7Pr0.3Ba2Cu3O6.6,28.5,cuprate
Y1Ba2Cu2.9Fe0.1O6.7,28.5,cuprate
Sr1Fe2P0.7As1.3,28.475,iron-based
Ba0.75K0.25Fe2As2,28.45,iron-based
La1.885Sr0.115Cu1O4,28.414,cuprate
Bi1.5Pb0.5Sr1.6La0.4Cu1O6.055,28.4,cuprate
Nd1.23Pt3Ca8.77Fe10As18,28.4,iron-based
Gd1Sr2Ru0.8Cu2.2O8,28.4,cuprate
La1.69Sr0.31Cu0.94Fe0.06O4,28.4,cuprate
La1.88Sr0.125Cu0.97O4,28.4,cuprate
La1Fe1As1O0.7,28.4,iron-based
Tl0.63K0.37Fe1.78Se2,28.4,iron-based
La1.85Sr0.15Cu0.99Zn0.01O4,28.36,cuprate
Ca0.3Ba1.45La1.25Cu3O7,28.3,cuprate
La1.79Sr0.21Cu0.94Ni0.06O4,28.3,cuprate
La1.82Sr0.18Cu0.99Ru0.01O4,28.3,cuprate
Bi1Ba0.65K0.35O3,28.2,others
La0.1Ca0.9H1Fe1As1,28.2,iron-based
Ca4Fe2Al2As2O6,28.2,iron-based
Cs0.86Fe1.66Se2,28.166667,iron-based
Bi1Ba0.66K0.34O3,28.1,others
Bi1.5Pb0.5Sr1.6La0.4Cu1O6.044,28.1,cuprate
Nd1.59Pt3Ca8.41Fe10As18,28.1,iron-based
Ir0.06Mg0.94B2,28.1,others
Pb0.5Cu1Sr0.9La1.1O5.16,28.1,cuprate
Pb0.6Cu1Sr0.8La1.2O5.28,28.1,cuprate
Y0.9Ca0.1Ba2Cu3O6.3,28.1,cuprate
Y1Ba1.8La0.2Cu3O6.6,28.1,cuprate
Ba0.15La1.85Cu1O4,28,cuprate
Bi1Ba0.77K0.23O3,28,others
Bi0.5La1.5Sr1Cu2O6.02,28,cuprate
Bi1.4Pb0.6Sr1.6La0.4Cu1O6.068,28,cuprate
Bi1.95Sr1.85Pr0.2Cu1O4,28,cuprate
La0.23Ca0.77Fe1P0.01As1.99,28,iron-based
Ca1.65Na0.35Cu1Cl2O2,28,cuprate
Ca1La1Ba1Cu2.88Fe0.12O7,28,cuprate
Sm1.55Pt3Ca8.45Fe10As18,28,iron-based
Dy0.8Ca0.2Ba2Cu2.7Zn0.3O6.78,28,cuprate
Eu0.6Pr0.4Ba1.7Sr0.3Cu3O6.93,28,cuprate
Eu1.4Ba1.6Cu3O7.16,28,cuprate
Eu1Ba1.5Pr0.3Sr0.2Cu3O6.81,28,cuprate
Eu1Fe1P0.36As1.64,28,iron-based
Sr4Mg0.4Ti1.6Fe2As2O6,28,iron-based
Sc1.8Sr4Ti1.2Fe2As2O8,28,iron-based
Ga1Sr2Tm0.75Ca0.25Cu2O7,28,cuprate
Gd1.25Ba1.75Cu3O6.98,28,cuprate
Hg1Ba2Cu0.97Zn0.03O4.027,28,cuprate
K3H3C60N1,28,others
La0.6Pr0.6Ba1Ca1Cu3O7,28,cuprate
La0.85Na0.15Fe1As1O0.85F0.15,28,iron-based
La0.97Pr0.85Sr0.18Cu1O4,28,cuprate
La1.55Ca0.15Nd0.3Cu1O4,28,cuprate
La1.82Sr0.18Cu1O3.972,28,cuprate
La1.87Ca0.13Cu1O4,28,cuprate
La1.929Na0.071Cu1O4,28,cuprate
La1Ba1Ca1Cu2.7Ni0.3O6.848,28,cuprate
La1Pr0.85Sr0.15Cu1O4,28,cuprate
Mg1B1.87C0.13,28,others
Nd1.5Ce0.5Sr2Nb1Cu2O10,28,cuprate
Nd1Fe1P0.4As0.6O0.9F0.1,28,iron-based
Pb0.5Cu1Sr0.8La1.2O5.16,28,cuprate
Pb0.5Cu1Sr1La1O5.15,28,cuprate
Pb0.6Cu1Sr1.1La0.9O5.18,28,cuprate
Rb0.75Fe1.6S0.5Se1.5,28,iron-based
Sm1H0.11Fe1P0.23As0.77O0.89,28,iron-based
Tl0.45K0.34Fe1.84Se2,28,iron-based
Tm1Ba2Cu3O6.44,28,cuprate
Y0.8Ca0.2Sr1.5Ba0.5Cu2.8Cr0.2O7,28,cuprate
Y1Ba2Cu2.919Zn0.081O6.83,28,cuprate
Y1Ba2Cu2.931Zn0.069O6.7,28,cuprate
Y2La1Ba3Cu6O14.17,28,cuprate