Formula,Tc,Materials_family
La1Ru2.94Fe0.06Si2,4.58,heavy-Fermion
Ta0.85Nb0.15,4.58,others
Nd0.6Sm0.4Bi1O0.3S2F0.7,4.58,others
Tl2Mo6Se6,4.575,others
V0.9868Cr0.0132,4.57,others
Sc2Fe3Si5,4.57,others
V0.995Sn0.005,4.57,others
La1Ir0.125Fe0.875As1O1,4.56,iron-based
Pt0.2Mo0.8,4.56,others
Na0.3H2.6Co1O3.3,4.5575,others
Nb0.8B2,4.55,others
Y0.1Ce0.84Gd0.06Ru2,4.55,heavy-Fermion
Rh1.5Cu1.5S4,4.55,others
Dy0.9Tm0.1Ni2B2C1,4.55,heavy-Fermion
La1Bi1O0.54S2F0.9,4.55,others
Ta0.9Nb0.1,4.55,others
Ta0.0355V0.9645,4.55,others
Nd0.2Th0.8Ru2,4.55,heavy-Fermion
Ta0.05Ti0.45V0.5,4.55,others
V1N0.8,4.54,others
Ta0.92Nb0.08,4.54,others
Mo0.6V2.4Si1,4.54,others
Na0.75H2.6Co1O3.3,4.533333,others
Pt0.19Mo0.81,4.53,others
Pb0.928Ti2Sn0.232Se5.16,4.53,others
Ru0.47V0.53,4.53,others
Bi1.6Ba1Ti2Sb0.4O1,4.52,others
V0.993Co0.007,4.52,others
Dy0.06Lu1.94Fe3Si5,4.52,heavy-Fermion
Re0.76V0.24,4.52,others
Y0.75Gd0.25Ni2B2C1,4.52,others
Ca1Al0.6Ga0.4Si1,4.51,others
Ce0.86Tb0.14Ru2,4.51,heavy-Fermion
Ho1Co0.03Ni1.95B2C1,4.51,heavy-Fermion
La1.943Sr0.057Cu1O4,4.51,cuprate
Ta0.963Nb0.037,4.51,others
In0.4Sn0.6Te1,4.51,others
Ta0.01Ti0.49V0.5,4.51,others
Ta0.005Ti0.495V0.5,4.505,others
Au0.075Sb0.85Te0.075,4.5,others
Au0.2Mo1.8B5,4.5,others
Pr0.021Bi0.979Ba0.47K0.53O3,4.5,others
Pr0.075Bi0.925Ba0.6K0.4O3,4.5,others
Hf0.6Nb0.4C1,4.5,others
Ca1Al1.3Si0.7,4.5,others
Sm1Gd1Ni2,4.5,heavy-Fermion
Ho5Os4Si15,4.5,heavy-Fermion
La0.99Sm0.01,4.5,others
La1.87Ba0.13Cu0.99Ga0.01O4,4.5,cuprate
Sc0.05Lu4.95Ir4Si10,4.5,heavy-Fermion
Mg0.9Ni3Zn0.1C0.98,4.5,others
Mg0.9Ni3Zn0.1C1,4.5,others
Re1N0.34,4.5,others
Na0.31D2.5Co1O3.25,4.5,others
Na0.33H2.86Co1O3.42,4.5,others
Na0.3D2.8Co1O3.4,4.5,others
Na0.3H2.8Co1O3.4,4.5,others
Re0.68Nb0.32,4.5,others
Mg0.25Nb0.75B2,4.5,others
Mg0.1Nb0.9B2,4.5,others
Re0.1Nb0.9,4.5,others
Nb0.8C0.04Si0.16,4.5,others
Nd1Bi1O0.3S2F0.7,4.5,others
Nd1Bi0.84O0.5S2F0.5,4.5,others
Zr3P1,4.5,others
Zr1S1.1,4.5,others
Y2Al1Ge3,4.5,others
V0.99Al0.01,4.49,others
La0.97Er0.03,4.49,others
Ir0.85Rh0.1Te2,4.49,others
Tc0.65V0.35,4.49,others
Zr1V1.7Fe0.3,4.49,others
Ce0.2Nd0.8Bi1O0.5S2F0.5,4.48,others
Mo6S1Se7,4.48,others
Na0.28H2.6Co1O3.3,4.48,others
Pr0.8Sr0.2Fe0.7Co0.3As1O1,4.48,iron-based
W0.72Ir0.28,4.475,others
Zr0.96Mo0.04,4.47,others
Ta0.984Nb0.016,4.47,others
Ta0.96Nb0.04,4.47,others
Ta0.1V0.9,4.47,others
Ta0.975Nb0.025,4.465,others
Sc3.5Dy1.5Ir4Si10,4.465,heavy-Fermion
V3Sn1,4.4625,others
Bi2.75Ba2Sb0.25,4.46,others
La1Bi1O0.54S2F0.7,4.46,others
La1Tl0.24Pb2.76,4.46,heavy-Fermion
In0.45Sn0.55Te1,4.46,others
Ta0.0568V0.9432,4.46,others
Zr0.271Nb0.188V0.541,4.46,others
V0.975Cu0.025,4.45,others
V2Cu1S4,4.45,others
Pd0.03In0.97,4.45,others
La0.9Th0.1Ni1C2,4.45,others
Na0.22H1.8Co1O2.85,4.45,others
Ta0.95Nb0.05,4.45,others
La0.3Th0.9Ru2,4.45,heavy-Fermion
Th1Rh4B4,4.448,heavy-Fermion
Bi3Ba2,4.44,others
H0.37Nb0.72Mo0.1Pd0.18,4.44,others
Pb0.1In0.9,4.435,others
La0.8Al0.2,4.43,others
Nb2C0.82S1,4.43,others
Pr1Pt4Ge11.5Sb0.5,4.43,heavy-Fermion
Lu2Ir3Si5,4.425,heavy-Fermion
Hg0.3Pb0.45Bi0.25Ba1O3,4.42,others
La2.9251Ce0.0749In1,4.42,heavy-Fermion
Gd0.2Er0.8Rh4B4,4.41,heavy-Fermion
La1Bi2.04Ni0.84,4.41,heavy-Fermion
Th1Os0.6Ir1.4,4.41,heavy-Fermion
Sc1Au2Al1,4.4,others
As2Te3,4.4,others
Yb0.01Zr0.99B12,4.4,others
Sr4C60,4.4,others
Ca1Al1.25Si0.75,4.4,others
W1Cs0.1O2.9F0.1,4.4,others
Bi4Cs0.96Te6,4.4,others
Bi4.1Cs1Te5.9,4.4,others
K0.2Co1.5Cu1.3S4,4.4,others
La1.85Sr0.15Cu0.976Co0.024O4,4.4,cuprate
La2Rh3Si5,4.4,heavy-Fermion
Nb0.8Mo0.2,4.4,others
Ta1Na0.1S2,4.4,others
Nb1Se0.25Te0.75,4.4,others
Nb2B1N1,4.4,others
Nb0.82Si0.18,4.4,others
W0.26Os0.74,4.4,others
Zr0.96Rh0.04,4.4,others
Sm0.7Pr0.3Ba2Cu3O6.85,4.4,cuprate
In0.5Sn0.5Te1,4.4,others
Ta1Re1Si1,4.4,others
Tm1Co0.16Ni1.92B2C1,4.4,heavy-Fermion
Y0.6La0.4B6,4.4,others
Y2C2Cl0.5Br1.5,4.4,others
Zr2Co0.7Cu0.3,4.39,others
La1Fe1P0.4As0.6O1,4.3825,iron-based
Ti0.76V0.24,4.382,others
Al0.046In0.151Sn0.803,4.38,others
Y0.8Er0.2Pd2Sn1,4.38,others
Ti1N0.99,4.38,others
Na0.75H2.6Co0.9995Ga0.0005O3.3,4.38,others
Ta4Pd3Te16,4.38,others
Tm1Ir2Rh2B4,4.38,heavy-Fermion
Bi3.925Co0.075O4S3,4.3775,others
Ta1,4.3769,others
La0.951Lu0.049,4.37,others
Y0.9Yb0.1Pd2Sn1,4.37,others
Zr1P1.6S0.4,4.36,others
Zr0.333Nb0.2112V0.455,4.36,others
La1Rh1Si1,4.35,heavy-Fermion
Dy0.582Lu0.418Ni2B2C1,4.35,heavy-Fermion
Ta0.1375Ir0.45Nb0.4125,4.35,others
Nb0.81Si0.19,4.35,others
Nd1Bi1O0.4S2F0.6,4.35,others
Rh1Se2,4.35,others
Zr0.258Nb0.229V0.513,4.34,others
Pd0.1Ti0.9,4.335,others
Ir0.75Rh0.2Te2,4.33,others
La0.9837Ce0.0163Sn3,4.33,heavy-Fermion
La2.82Pr0.18S4,4.33,others
Sc0.1Lu1.9Fe3Si5,4.33,heavy-Fermion
Au1Pb3,4.325,others
La1Fe0.98Zn0.02As1O0.85,4.32,iron-based
Pb1.2Mo6Se8,4.32,others
Pd0.15Ti0.85,4.32,others
Ce0.2Nd0.8Bi1O0.3S2F0.7,4.31,others
Tm0.4Lu0.6Ru1B2,4.31,heavy-Fermion
La0.78Al0.22,4.3,others
Nb1.8Mo0.2B5,4.3,others
Ba1Fe1.872Co0.042Cu0.086As2,4.3,iron-based
Ba1Sn3,4.3,others
Bi3O2S3,4.3,others
Pt3.213Ca10Fe9.787As18,4.3,iron-based
Dy1Ir2.4Rh1.6B4,4.3,heavy-Fermion
Eu1.8315Y0.0185Ce0.15Cu1O4,4.3,cuprate
H0.64Nb0.85Pd0.15,4.3,others
Hf5Re24,4.3,others
Ir0.1Ti0.9,4.3,others
La2.9553Gd0.0447In1,4.3,heavy-Fermion
Dy0.6Lu0.4Ni2B2C1,4.3,heavy-Fermion
Ir19Mg12B16,4.3,others
Mo15Se19,4.3,others
Nb0.15V0.85,4.3,others
Zr1Nb0.5V1.5,4.3,others
Nb0.25Mo0.25Ti0.5,4.3,others
Nd1.72Ta3.28S2,4.3,others
Pb1Mo6S5Se3,4.3,others
Pt0.05Rh0.04Ti0.91,4.3,others
Sc1Fe3Si5,4.3,others
Zr1Nb0.5V0.45,4.3,others
V0.746Al0.075Sb0.179,4.3,others
Y0.15Dy0.85Ni2B2C1,4.3,heavy-Fermion
Y1Ba2Cu2.9Ni0.1O6.56,4.3,cuprate
Y1Ba2Cu2.9Zn0.1O6.88,4.3,cuprate
Y2Ba4Cu7O14.03,4.3,cuprate
Zr0.9Mo0.1,4.3,others
Ce0.2Nd0.8Bi1O0.7S2F0.7,4.29,others
Hf1D0.75V2,4.29,others
Ta0.15Zr0.85,4.29,others
La0.3Nd0.7Pt2.1B2.4C1.2,4.28,heavy-Fermion
La0.92Gd0.08Sn3,4.28,heavy-Fermion
Rh0.106Ti0.894,4.28,others
Ta1Si1,4.28,others
Tl0.74Bi0.26,4.275,others
Na0.31H2.6Co1O3.3,4.27,others
Nb2Pd1S4.5Se0.5,4.27,others
Sm1Ru0.5Fe0.5As1O0.85F0.15,4.26,others
Bi3.875Co0.125O4S3,4.255,others
Au1Tl2,4.25,others
Ba0.95K0.05Ti2Sb2O1,4.25,others
Ba0.95Rb0.05Ti2Sb2O1,4.25,others
Bi2.5Ba2Sb0.5,4.25,others
Bi1Ni1,4.25,others
Pb1Bi2,4.25,others
Bi2Rb1,4.25,others
Ca1Si3,4.25,others
In0.92Sn0.08,4.25,others
Nb0.5V0.5,4.25,others
Nb1Rh1P1,4.25,others
Ba0.9Na0.1Ti2Sb2O1,4.24,others
Nd1Bi1O0.9S2F0.1,4.24,others
W1Rb0.18O3,4.24,others
Sr1Ga0.8Si1.2,4.24,others
Ca1Ga1Si1,4.2375,others
Nb0.8Si0.2,4.23,others
Pb0.4003In0.2Sn0.3997Te1,4.23,others
La3Co1,4.226667,heavy-Fermion
V0.61Mn0.14Ga0.25,4.22,others
La0.9916Sm0.0084,4.22,others
Sr3Rh4Sn13,4.216667,others
Mo0.16Ti0.84,4.213,others
Pt0.38N0.62,4.21,others
Nb0.6Rh0.4,4.21,others
V0.99Sn0.01,4.21,others
La0.4Sm0.6Bi1O0.5S2F0.5,4.205,others
Nb2Ni1Al1,4.2,others
Bi1Pd2,4.2,others
Bi4O4S2.97Se0.03,4.2,others
Zr0.9Nb0.1C1,4.2,others
Pd0.03Cd0.97,4.2,others
Ce1Bi2.03Ni0.8,4.2,heavy-Fermion
Ta1Cu0.04S2,4.2,others
Dy1Bi1.78Ni0.74,4.2,heavy-Fermion
Er1Co0.08Ni1.96B2C1,4.2,heavy-Fermion
Fe1Sr2Nd1Cu2O7.54,4.2,cuprate
V0.29Ga0.71,4.2,others
Gd1Bi1.91Ni0.72,4.2,heavy-Fermion
Ge1P1,4.2,others
Ta1H0.11S2,4.2,others
Hf0.76Nb0.25,4.2,others
Hg1,4.2,others
Hg1Sn1,4.2,others
Pb0.087In0.913,4.2,others
Ir0.42Nb0.58,4.2,others
K0.5Mo1O3,4.2,others
La0.2Th0.8Ni1C2,4.2,others
La1.65Ba0.35Cu1O4,4.2,cuprate
La1.6Ba0.4Cu1O4,4.2,cuprate
Mo6Se5I3,4.2,others
Nb0.925Ru0.075,4.2,others
Nb1.2Mo1.8Al1,4.2,others
Nd1Bi2.14Ni0.72,4.2,heavy-Fermion
Pr1Bi1.98Ni0.79,4.2,heavy-Fermion
Ru0.452V0.548,4.2,others
Sm1Bi2.08Ni0.78,4.2,heavy-Fermion
Mo6Sn1.1Se7.5,4.2,others
Tb1Bi1.9Ni0.74,4.2,heavy-Fermion
Y0.77Gd0.23Ni2B2C1,4.2,others
Y1Ba2Cu2.9Fe0.1O6.62,4.2,cuprate
Zr2Co0.6Ni0.4,4.2,others
Cu0.4Sn0.6,4.19,others
Na0.75H2.6Co0.999Ga0.001O3.3,4.19,others
Pb0.32In0.2Sn0.48Te1,4.19,others
Pb1.044Ti2Sn0.116Se5.16,4.19,others
Bi3In5,4.189,others
Ti0.848Cr0.152,4.18,others
Gd0.24Er0.76Rh4B4,4.18,heavy-Fermion
La0.908Tm0.092Sn3,4.18,heavy-Fermion
Pb0.4203In0.16Sn0.4197Te1,4.18,others
Y0.1La0.9Co2B2,4.175,heavy-Fermion
Ti1Cu0.081Se2,4.17,others
Nb0.6V0.4,4.17,others
Pb0.43In0.16Sn0.43Te1,4.17,others
Tc0.6V0.4,4.17,others
Ta1Cu0.06S2,4.16,others
Y0.1Lu1.9Fe3Si5,4.16,heavy-Fermion
Pb0.3203In0.2Sn0.4797Te1,4.16,others
Bi0.08Sn0.92,4.15,others
Ce1Bi2Ni0.8,4.15,heavy-Fermion
Nb0.955Ge0.045,4.15,others
Zr0.941Mo0.059,4.15,others
Y2C2Cl0.75Br1.25,4.15,others
Bi0.7Sb0.3,4.14,others
Ti1Cu0.08Se2,4.14,others
Lu0.5Th0.5Os3B2,4.14,others
Ta0.125Zr0.875,4.14,others
Pt1.5Li2Pd1.5B1,4.13,others
Y1Pb1Pd2,4.13,others
W1Rb0.2O3,4.126667,others
Ti0.8V0.2,4.125,others
Ce0.09Ba0.91Fe2As2,4.12,iron-based
W1Be22,4.12,others
Mg0.85Ni3Zn0.15C1,4.12,others
Pb0.4In0.2Sn0.4Te1,4.12,others
Y0.95Tm0.05Pd2Sn1,4.12,others
Y0.9Tm0.1Pd2Sn1,4.12,others
Re0.1Zr0.9,4.12,others
Hg0.333In0.667,4.115,others
Mo2B1,4.1125,others
H0.9Pd1,4.11,others
Nb0.4V0.6,4.11,others
Nb0.55V0.45,4.11,others
Ce0.1Pr0.9Pt4Ge12,4.11,heavy-Fermion
Zr1P0.6Se1.4,4.11,others
Hg0.97Tl0.03,4.109,others
Pt0.35Au0.65Te2,4.1,others
Ba1Pd0.042Fe1.958As2,4.1,iron-based
Ba2Sr6Si46,4.1,others
W1Be13,4.1,others
W1Be1,4.1,others
Bi0.06Sn0.94,4.1,others
Bi1In5,4.1,others
Th1C1.45,4.1,others
Ce1Bi2Ni0.86,4.1,heavy-Fermion
Re0.62Cr0.38,4.1,others
Fe0.98Cu0.02Se0.85,4.1,iron-based
Dy1Co0.01Ni1.995B2C1,4.1,heavy-Fermion
La2.94Gd0.06In1,4.1,heavy-Fermion
In0.25Sb0.75,4.1,others
Ir2Zr1,4.1,others
Lu5Ir4Si9.95Ge0.05,4.1,heavy-Fermion
Na0.3Mo1S2,4.1,others
Nd0.95Pr0.05Ba2Cu3O6.6,4.1,cuprate
Nd1Bi2Ni0.89,4.1,heavy-Fermion
Tl1V6S8,4.1,others
Y1Bi2Ni0.82,4.1,others
Y1Rh2Sn1,4.1,others
Ta1Ni0.04S2,4.095,others
Ir19Mg10B16,4.0875,others
La1Pb3,4.086667,heavy-Fermion
Bi3Fe0.05Ni0.95,4.08,others
Ce1Pt0.1Ru1.9,4.08,heavy-Fermion
V0.98Cr0.02,4.08,others
Mo0.15Ti0.85,4.08,others
Ir1Rh16S15,4.08,others
Bi0.025In0.975,4.07,others
Ce0.3Nd0.7Bi1O0.5S2F0.5,4.07,others
H0.74Nb0.8Pd0.2,4.07,others
Pd1.1Te1,4.07,others
T0.81Pd1,4.0635,others
Bi2.25Ba2Sb0.75,4.06,others
Bi3Fe0.1Ni0.9,4.06,others
Y0.9Ho0.1Pd2Sn1,4.06,others
V0.975Si0.025,4.06,others
V0.98Al0.02,4.05,others
Ba1Ga1Si1,4.05,others
Ca1Al0.8Si1.2,4.05,others
La0.5Sm0.5Bi1O0.5S2F0.5,4.05,others
La1Bi2Ni0.72,4.05,heavy-Fermion
Na0.3H2.6Mn0.005Co0.995O3.3,4.05,others
Pb1Sb1,4.05,others
Nb3Rh2,4.04,others
Nb0.2V0.8,4.03,others
Y0.7Yb0.3Pd2Sn1,4.03,others
La3Te4,4.0275,others
Bi1.2Ba1Ti2Sb0.8O1,4.02,others
Ir0.68Rh0.27Te2,4.02,others
La2.9234Ce0.0766In1,4.02,heavy-Fermion
Pb0.812Ti2Sn0.348Se5.16,4.02,others
Pb0.336In0.16Sn0.504Te1,4.01,others
Os3.2Ru0.8Al13,4,others
Ta1B1,4,others
B0.028C0.972,4,others
Nb1.9Ti0.1B5,4,others
Pr0.028Bi0.972Ba0.47K0.53O3,4,others
Ba1Ga0.78Si1.22,4,others
Ba1Ge3,4,others
Ba8Si34Ge12,4,others
Ba8Al7Si39,4,others
Bi0.34In0.66,4,others
Bi12O18S11,4,others
Bi2Ca2.5Gd0.5Cu2O8.33,4,cuprate
Ca0.6Mo1S2,4,others
Ca3Rh8B2,4,others
Ce1Bi1O0.35S2F0.7,4,others
Ce1Fe0.85Co0.15As1O0.9F0.1,4,iron-based
Ce1Fe1P0.3As0.7O1,4,iron-based
Ta3Co0.02Sn0.98,4,others
Rh0.04Ti0.91Co0.05,4,others
W1Cs0.1Li0.02O2.88F0.12,4,others
W1Cs0.25O3,4,others
Dy1Th3.4Ru0.6B4,4,heavy-Fermion
Fe0.98Cu0.02Se0.88,4,iron-based
Mo0.99Mn0.01Ga4,4,others
Gd1Ba1Sr1Cu3O6.77,4,cuprate
Gd1Re1B1C1,4,heavy-Fermion
Hg2Mg1,4,others
Mo15In3.3Se19,4,others
Ir0.05Rh0.04Ti0.91,4,others
La1.94Ba0.04Cu1O4,4,cuprate
La1Fe0.6Co1.4B2,4,heavy-Fermion
La1Bi2Ni0.65,4,heavy-Fermion
La3Ru2Co2Sn13,4,heavy-Fermion
Lu1Rh1.2Sn4,4,heavy-Fermion
Sc0.025Lu4.975Ir4Si10,4,heavy-Fermion
Lu4Rh6Sn19,4,heavy-Fermion
Mg0.8Ni3Zn0.2C1.05,4,others
Mg4Ni6B2,4,others
Mo0.1633Ti0.8367,4,others
Zr0.9478Mo0.0522,4,others
Ta1Na0.05S2,4,others
Ba6.2Na0.3Si46,4,others
Ta2Na0.65H5Sn1.16O2.5S5.16,4,others
Ta2Na0.6Sn1S5,4,others
Nb3V3Si1Sn1,4,others
Pr1Fe0.7Co0.3As1O1,4,iron-based
Rh0.12Ti0.88,4,others
Rh0.1Ti0.9,4,others
Rh0.88Ti0.12,4,others
Ru0.45V0.55,4,others
Tb1Re1B1C1,4,heavy-Fermion
Y0.5Pr0.5Ba2Cu3O6.71,4,cuprate
Y0.5Pr0.5Ba2Cu3O6.76,4,cuprate
Y0.5Pr0.5Ba2Cu3O6.85,4,cuprate
Y0.65La0.35B6,4,others
Tm1Fe0.16Ni1.84B2C1,3.99,heavy-Fermion
La0.75Al0.25,3.98,others
Na0.75H2.6Co0.9975Ga0.0025O3.3,3.98,others
Th1Ru3.5Si2,3.98,heavy-Fermion
Th1Ru3Si2,3.98,heavy-Fermion
La0.8Au0.2,3.97,others
Ta1S1.6Se0.4,3.97,others
Ta0.275Nb0.275Rh0.45,3.965,others
Bi3.85Co0.15O4S3,3.9625,others
Sn0.94Sb0.06,3.96,others
La0.98Tb0.003Lu0.017,3.959,others
Na0.29H2.6Co1O3.3,3.955,others
Co0.03In0.97,3.95,others
Ti2Cu0.08Se2,3.95,others
La0.9966Eu0.0034,3.95,others
Ge1,3.9475,others
Te1,3.94125,others
Bi0.055Sn0.945,3.94,others
Ce0.4Nd0.6Bi1O0.5S2F0.5,3.94,others
La0.25Th0.75Sn3,3.94,heavy-Fermion
Ir0.005Na0.75H2.6Co0.995O3.3,3.94,others
Ga0.05Sn0.95,3.938,others
Bi3.99Cu0.01S3O4,3.935,others
Bi3Ni1,3.935,others
Ta0.275Ir0.45Nb0.275,3.935,others
La0.78Au0.22,3.934,heavy-Fermion
La1Ru2P2,3.933333,heavy-Fermion
Nb2C1Sn1,3.933333,others
Pb0.65Bi0.35Ba1O3,3.93,others
Bi0.05Sn0.95,3.93,others
Th1Ir5,3.93,heavy-Fermion
Tl2Pb1,3.925,others
La3Ce0.01Al1,3.92,heavy-Fermion
Bi2Ba2Sb1,3.92,others
Ca1Fe0.8Ni0.2As1F1,3.92,iron-based
Y0.6La2.4Se4,3.92,others
La2.574Pr0.426Tl1,3.92,heavy-Fermion
Pb0.252In0.16Sn0.588Te1,3.92,others
Ba8Si31Ge15,3.91,others
Os0.28Cr0.72,3.906,others
Ba2Sn3Sb6,3.9,others
W0.28C0.72Si1,3.9,others
Mo2Ga1C1,3.9,others
Ce0.15Ru0.85,3.9,others
Zr0.9Co0.1,3.9,others
Zr3Co1,3.9,others
Rh1.992Cr0.008Cu1S4,3.9,others
Ti1Cu0.07Se2,3.9,others
Ti1Cu0.7Se2,3.9,others
Eu0.75Mo6Sn0.25S7.2Se0.8,3.9,others
Zr0.9Fe0.05Ni0.05,3.9,others
Rh0.04Ti0.91Fe0.05,3.9,others
Ta1H0.1S2,3.9,others
Pb0.06In0.94,3.9,others
V6In1S8,3.9,others
W1K0.18O3,3.9,others
La0.5Th0.5Ni2B2C1,3.9,others
La1Ni1As1O0.9F0.1,3.9,others
La1Ru1.5Sn4.5,3.9,heavy-Fermion
La3Ru4Ge13,3.9,heavy-Fermion
Y0.5Lu4.5Ir4Si10,3.9,heavy-Fermion
Ta1S0.8Se1.2,3.9,others
Ta1S1.2Se0.8,3.9,others
Sm1.88Ce0.12Cu1O4,3.9,cuprate
In0.2Sn0.8Se0.15Te0.85,3.9,others
Sr1Sn3Sb4,3.9,others
Y3Os4Ge13,3.9,others
Y1C2,3.895429,others
V0.9735Cr0.0265,3.89,others
H0.63Nb0.87Pd0.17,3.89,others
Sn0.92Sb0.08,3.89,others
U6Fe1,3.88875,heavy-Fermion
Hg0.698Tl0.302,3.888,others
Ga0.04Sn0.96,3.887,others
Ba0.96K0.04Ti2Sb2O1,3.88,others
Bi0.045Sn0.955,3.88,others
Nb0.85V0.15N0.92,3.88,others
Pb0.2517In0.16Sn0.5883Te1,3.88,others
W0.054Zr0.946,3.88,others
Hg0.714Tl0.286,3.875,others
Re24Zr5,3.875,others
Y0.9Er0.1Pd2Sn1,3.87,others
Zr0.89Ru0.11,3.87,others
Pb0.24In0.2Sn0.56Te1,3.87,others
Bi0.019In0.981,3.86,others
Bi0.04Sn0.96,3.86,others
Y1C1.95,3.86,others
Hg5Tl2,3.86,others
Bi0.02Sn0.98,3.85,others
Bi0.4Pd0.6,3.85,others
Tc1C1,3.85,others
V0.95Cu0.05,3.85,others
Zr5Ga3,3.85,others
Sr1Ga0.74Si1.26,3.85,others
W0.8Tc0.2,3.85,others
W0.474C0.42O0.106,3.85,others
Y2C2Cl1Br1,3.85,others
Bi0.02In0.98,3.845,others
W2C1,3.835,others
La1Pt1Si1,3.833333,heavy-Fermion
Hg0.2Pb0.55Bi0.25Ba1O3,3.83,others
Dy1Ir1.6Rh2.4B4,3.83,heavy-Fermion
Nb1S0.899,3.83,others
Bi2Pd1,3.823333,others
La0.73Al0.27,3.82,others
W0.75Ir0.25,3.82,others
Lu5Ir4Si10,3.82,heavy-Fermion
V0.989Ni0.011,3.82,others
Pb0.696Ti2Sn0.464Se5.16,3.82,others
Th1Ir0.75Si1.25,3.82,heavy-Fermion
Ca1Rh0.05Fe0.95As1F1,3.81,iron-based
Hg0.5In0.5,3.81,others
Hg1In1,3.81,others
Nb3S4,3.81,others
Sn1O1,3.81,others
W0.66Os0.34,3.81,others
Pb0.42In0.16Sn0.42Te1,3.805,others
Re1Mo1C2,3.8,others
W1Re1C2,3.8,others
Yb2.75C60,3.8,others
Rh2Co0.02Cu0.98Si4,3.8,others
Ti0.85Co0.15,3.8,others
Th0.8Co0.2,3.8,heavy-Fermion
Ta1Cs0.33S2,3.8,others
Zr1Cu0.05Te3,3.8,others
Bi2Cu0.12Se3,3.8,others
Y1Ge2,3.8,others
Ta1K0.33S2,3.8,others
Lu1Co0.34Ni1.83B2C1,3.8,heavy-Fermion
Lu2Ir2.91Rh0.09Si5,3.8,heavy-Fermion
Tl0.65Pb0.35,3.8,others
Y0.7Er0.3Pd2Sn1,3.8,others
Re2Si1,3.8,others
Sn0.6Sb0.4,3.8,others
In0.2Sn0.8Se0.2Te0.8,3.8,others
Ta5B2Ge1,3.8,others
V3Ga0.1Sn0.9,3.8,others
Y2.5Dy2.5Os4Ge10,3.8,heavy-Fermion
La0.75Au0.15Cu0.1,3.795,heavy-Fermion
Rh2Cu1S4,3.794,others
Ta1Cu0.03S2,3.79,others
La0.99Eu0.01,3.79,others
Zr0.92Ru0.08,3.79,others
Zr0.79Co0.21,3.78,others
La1Bi1O0.5S1Se1F0.5,3.78,others
Bi3Sn1,3.77,others
La0.99Dy0.01,3.77,others
La0.98Nd0.02,3.77,others
Dy0.1Lu1.9Fe3Si5,3.77,heavy-Fermion
Pb1Mo6Se8,3.77,others
In0.075Sn0.925,3.766,others
Au1Pb2,3.76,others
Ir0.58Rh0.37Te2,3.76,others
La0.936Gd0.064Sn3,3.76,heavy-Fermion
La1H0.08Ni1As1O0.92,3.76,others
Nb0.48Rh0.52,3.76,others
Nb0.86Rh1.04,3.76,others
Zr0.72Ru0.28,3.76,others
V0.99Sb0.01,3.76,others
Sn0.96Sb0.04,3.76,others
Ta0.1Zr0.9,3.76,others
Sn1As1,3.755,others
Pb0.01Sn0.99,3.752,others
Rh0.04Ti0.91Cr0.05,3.75,others
Cu0.15In0.85,3.75,others
Ir1Li2Si3,3.75,others
Sn0.95Sb0.05,3.75,others
Bi1Pd1,3.746667,others
In0.035Sn0.93Sb0.035,3.743,others
Sn1,3.740729,others
La6Zn1Sb15,3.74,heavy-Fermion
Lu5Ir4C1Si9,3.74,others
Pd0.14Ti0.86,3.74,others
Nb1Se3,3.736667,others
Bi2Te3,3.7325,others
Ca1Al0.5Ga0.5Si1,3.73,others
Fe1S0.4Se0.6,3.73,iron-based
Hg0.9In0.1,3.73,others
Pt0.375Nb0.625,3.73,others
Pt3Nb5,3.73,others
Y0.75Tm0.25Pd2Sn1,3.73,others
Zr0.78Ru0.22,3.73,others
Th1Os1.4Ir0.6,3.73,heavy-Fermion
Ga0.01Sn0.99,3.726,others
Ga0.02Sn0.98,3.726,others
Bi0.015In0.985,3.725,others
Zn0.09Sn0.91,3.722,others
La0.92Lu0.08,3.72,others
Lu5Rh4Si10,3.72,heavy-Fermion
Mg1Fe0.05Ni2.95C1,3.72,others
Zr0.8Rh0.2,3.72,others
Ce1Bi1O0.4S2F0.6,3.71,others
Hf1P1.7S0.3,3.71,others
La0.99Nd0.01Pt1Si1,3.71,heavy-Fermion
La1Ru2,3.7032,heavy-Fermion
Re2B1,3.7,others
Ba4Ca4Si46,3.7,others
Bi2Pd3,3.7,others
Bi3Mo1,3.7,others
Bi4O4S2.91Se0.09,3.7,others
Ti3Cr1,3.7,others
Eu1Pt1Si3,3.7,heavy-Fermion
La0.995Gd0.005,3.7,others
La3Ge1,3.7,heavy-Fermion
Ho1Co0.04Ni1.98B2C1,3.7,heavy-Fermion
In0.315Sb0.685,3.7,others
La0.9Sr0.1Ni1As1O1,3.7,others
La1.85Sr0.15Cu0.979Al0.021O4,3.7,cuprate
La1Bi1O0.5S1.2Se0.8F0.5,3.7,others
Li0.4Mo1S2,3.7,others
Mo1.75Ru1.25B2,3.7,others
Mo5Ru1Se8,3.7,others
Na0.35H1.3Co1O3.3,3.7,others
Ta2Pb1Na0.3S5,3.7,others
Ta2Pb1.14Na0.4H3.6O1.8S5.14,3.7,others
Th0.75Ni0.25,3.7,heavy-Fermion
Rh0.04Pd0.05Ti0.91,3.7,others
Ta1S1Se1,3.7,others
Ta0.5V0.25Sn0.25,3.7,others
In0.2Sn0.8Se0.25Te0.75,3.7,others
In0.2Sn0.8Se0.1Te0.9,3.7,others
Ta2V1Sn1,3.7,others
Tl1Ni2Se2,3.7,others
Y0.91Th0.09C2,3.7,others
Y2C2Cl1.25Br0.75,3.7,others
Ta1Pb1Se2,3.695,others
Bi0.54Cd0.2Sn0.26,3.69,others
In0.012Sn0.988,3.69,others
Pb0.045In0.955,3.69,others
Pb0.05In0.95,3.685,others
Al0.152Sn0.848,3.6835,others
Tl0.75Pb2.25Ca1,3.68,others
Pb0.04In0.96,3.68,others
La1H0.17Ni1As1O0.83,3.68,others
La2.55Pr0.45Tl1,3.68,heavy-Fermion
Th1Ru2,3.68,heavy-Fermion
Bi2O0.9S2F0.1,3.675,others
Pb1In1,3.675,others
Pr1Bi1O0.5S2F0.5,3.6725,others
Ce0.4Nd0.6Bi1O0.3S2F0.7,3.67,others
Ti0.899Fe0.101,3.67,others
Mg0.18In0.82,3.67,others
Zr0.76Rh0.24,3.67,others
Sr1Ga0.75Si1.25,3.67,others
In0.004Sn0.992Sb0.004,3.669,others
V0.974Cr0.026,3.66,others
Y0.6Er0.4Pd2Sn1,3.66,others
Hf1Pd2Al1,3.66,others
Y0.2Ir0.8,3.66,others
Zr0.77Rh0.23,3.66,others
In0.046Sn0.954,3.655,others
Ag0.035Cd0.01Sn0.955,3.65,others
Cd0.18Sn0.72,3.65,others
Cd1Sn1,3.65,others
La0.96Sr0.04Fe1As1O1,3.65,iron-based
La1.9Sr0.1Cu0.975Ni0.025O4,3.65,cuprate
La1.9Sr0.1Cu0.97Ni0.03O4,3.65,cuprate
Y0.5Tm0.5Pd2Sn1,3.65,others
Zr0.925Rh0.0375,3.65,others
Zr0.741Ti0.039Ni0.22,3.65,others
In0.06Sn0.94,3.644,others
Sn0.989Sb0.011,3.642,others
La0.76Au0.24,3.64,others
Nb0.9B2,3.64,others
Tl0.75In0.25,3.64,others
Pb0.039In0.961,3.64,others
La1Ni1As1O0.94F0.06,3.64,others
Pb1Mo6S4Se5,3.64,others
W0.014Zr0.986,3.64,others
La0.99Ce0.01,3.63,others
In0.03Sn0.97,3.628,others
H0.87Pd1,3.625,others
In0.017Sn0.983,3.625,others
In0.05Sn0.95,3.625,others
Ti1Cu0.064Se2,3.62,others
Cr0.01Co1.99Cu1S4,3.62,others
Ta0.96H0.04,3.62,others
Ti0.63V0.27Al0.1,3.62,others
La0.95Ce0.05Ru2,3.616,heavy-Fermion
Mg0.034In0.966,3.61,others
Ta2C2S2,3.61,others
Th1Os1Ir1,3.61,heavy-Fermion
Au0.5Ge0.5,3.6,others
Hf0.2Nb1.8B5,3.6,others
Bi1K1,3.6,others
Ca0.2Mo1S2,3.6,others
Ce0.147Ru0.853,3.6,others
Ti0.967V0.022Cr0.011,3.6,others
Re1K0.3O3,3.6,others
La1Bi1O0.5S0.8Se1.2F0.5,3.6,others
La1Sn2,3.6,heavy-Fermion
La3Ni1,3.6,heavy-Fermion
Lu2Ir3Si4Ge1,3.6,heavy-Fermion
Lu3Os4Ge13,3.6,heavy-Fermion
Ir1Mo2B2,3.6,others
Pb0.352In0.12Sn0.528Te1,3.6,others
Pb0.58Ti2Sn0.58Se5.16,3.6,others
W1Rb0.1O2.9F0.1,3.6,others
Zr0.973Rh0.027,3.6,others
Ru0.55Rh0.45P1,3.6,others
Yb1Sn3,3.6,heavy-Fermion
Y2Fe1C4,3.6,others
Zr1P1S1,3.6,others
In0.3Sn0.7Te1,3.595,others
La0.996Gd0.004,3.59,others
La1Ni1As1O0.88F0.12,3.59,others
Dy0.63Lu0.37Ni2B2C1,3.59,heavy-Fermion