Formula,Tc,Materials_family
Li1.1Ti1.9O4,10.05,others
Zr0.32Nb0.68,10.05,others
Y2C2Br0.75I1.25,10.05,others
La1Fe0.99Zn0.01As1O0.85,10.04,iron-based
Fe1Se0.1Te0.9,10.033333,iron-based
Nb1C1,10.025,others
Nb0.75Ti0.25,10.02,others
Y0.75Tb0.25Ni2B2C1,10.02,others
Fe1S0.2Se0.8,10.015,iron-based
Fe1Se0.574Te0.246,10.01,iron-based
Zr0.05Nb0.775Al0.175,10,others
Ba0.823K0.177Fe2As2,10,iron-based
Ba0.825K0.175Fe2As2,10,iron-based
Ba0.88K0.12Fe2As2,10,iron-based
Ba1.6Sr0.4Yb1Cu3O6.48,10,cuprate
Hg0.1Pb0.65Bi0.25Ba1O3,10,others
Ba8Ge46,10,others
Bi2Sr2Cu1O6.09,10,cuprate
Bi2Sr2Cu1O6.16,10,cuprate
Ta0.54Rh0.43C0.03,10,others
W0.5C0.5,10,others
Y1C1.35,10,others
Pr0.2Ca0.8Fe1As2,10,iron-based
Ca1.85Na0.15Cu1Br2O2,10,cuprate
Ce1H1Fe0.74Co0.26As1,10,iron-based
Ce1Fe0.9Co0.1As1O1,10,iron-based
Cu2Ce0.7Sr2Y1.3O8.91,10,cuprate
Cu7.5Sr2Ca6Cr0.5O17.1,10,cuprate
Dy1Ba2Cu2.7Fe0.3O6.96,10,cuprate
Eu1.55La0.3Ce0.15Cu1O4,10,cuprate
Fe0.95Co0.05Se1,10,iron-based
Fe0.95Ni0.05Se1,10,iron-based
Fe1S0.1Te0.9,10,iron-based
V0.79Ga0.21,10,others
Gd1Ba1.65Pr0.35Cu3O6.97,10,cuprate
Ho0.45Lu0.55Ni2B2C1,10,heavy-Fermion
La0.9Pr0.85Sr0.25Cu1O4,10,cuprate
La1.64Eu0.2Sr0.16Cu1O4,10,cuprate
La1.78Sr0.22Cu0.985Zn0.015O4,10,cuprate
Li1.4Zr1N1Cl1,10,others
Lu1Pd4B1C0.2,10,heavy-Fermion
Re0.25Mo0.75,10,others
Mo1Ru1,10,others
Mo3Al2C1,10,others
Pb0.7Mo6.35Sn0.36S8,10,others
Hf0.05Zr0.45Nb0.5,10,others
Nd0.65Pr0.35Ba1Ca1Cu3O7,10,cuprate
Nd1Rh0.2Fe0.8As1O1,10,iron-based
Pr2Ba4Cu7O14.5,10,cuprate
Pu1Fe0.2Co0.8Ga5,10,heavy-Fermion
Sm1.665Y0.185Ce0.15Cu1O4,10,cuprate
Sr0.4Ca13.6Cu24O41.84,10,cuprate
Ta0.6W0.4C1,10,others
Tl2Ba2Cu1O5.989,10,cuprate
Y0.5Pr0.5Ba2Cu3O6.965,10,cuprate
Y0.71Er0.29Rh4B4,10,others
Y0.8Pr0.2Ba2Cu3.925Fe0.075O8,10,cuprate
Y1Ba2Cu2.91Zn0.09O6.65,10,cuprate
Y1Cu2B2C1,10,others
Y2C2I2,9.985,others
Hg0.35Pb0.4Bi0.25Ba1O3,9.97,others
Hf0.6Zr0.4V2,9.97,others
Nb1B2.4,9.96,others
Nb1B2.8,9.96,others
Nb1B3,9.96,others
Pt0.78Ca10Fe9.22As18,9.96,iron-based
Hf0.7Zr0.3V2,9.96,others
La1.5Nd0.4Ba0.1Cu1O4,9.95,cuprate
La1.71Sr0.25Ho0.04Cu1O4,9.95,cuprate
Y0.85Gd0.15Ni2B2C1,9.95,others
Hf0.9Nb0.1V2,9.93,others
Ta0.8W0.2C1,9.92,others
Y1Pd0.6Ni1.4B2C1,9.92,others
P0.9As0.1,9.9,others
Li1.12Ti1.88O4,9.9,others
Lu1Tc2,9.9,heavy-Fermion
Ta0.395Zr0.199Nb0.406,9.9,others
Zr0.4445Nb0.5035Mo0.052,9.9,others
Zr0.9Rh0.1,9.9,others
V0.65Al0.25Si0.1,9.9,others
Zr0.258V2.742Ga1,9.9,others
Hf0.3Zr0.7V2,9.9,others
Re3Mo1,9.89,others
Pb0.8Bi0.2Ba1O3,9.875,others
Pt3.42Ca10Fe9.58As18,9.87,iron-based
Hf0.05Mo0.95C0.68,9.87,others
Pr1Fe0.9Co0.1P0.3As0.7O1,9.86,iron-based
Hf0.15Nb0.85,9.85,others
Zr1N1,9.85,others
Nb0.8Co0.04Ga0.16,9.85,others
Zr0.67Rh0.31Pd0.02,9.85,others
Ho0.6Lu0.4Ni2B2C1,9.82,heavy-Fermion
Eu0.34Sr0.66Fe1.76Co0.24As2,9.82,iron-based
Hf0.9Ta0.1V2,9.82,others
Na1Fe0.995Co0.005As1,9.81,iron-based
Nb1B2.32,9.8,others
Re1Os0.005Be22,9.8,others
Nb1C0.96,9.8,others
Nb1C0.984,9.8,others
Ce1Fe0.9Co0.1As1O0.9F0.1,9.8,iron-based
Ir0.41Nb0.59,9.8,others
Ir2Nb3,9.8,others
La1.9Ba0.1Cu0.99Zn0.01O4,9.8,cuprate
Re0.35Pt0.05Mo0.6,9.8,others
Ta0.2Re0.75Nb0.05,9.8,others
Ta0.75Nb0.25C1,9.8,others
Nb0.5V0.25Sn0.25,9.8,others
Nb0.6Ti0.4,9.8,others
Nb2V1Sn1,9.8,others
Nd0.8Pr0.2Ba2Cu3O6.75,9.8,cuprate
V0.75Al0.225Si0.025,9.8,others
V3Si0.4Sn0.6,9.8,others
Y4Os4Si13,9.8,others
Pt5Ca10Fe9As18,9.78,iron-based
Nb0.83B2,9.77,others
Hf0.87Zr0.13V2,9.76,others
Ba1Fe2P0.4As1.6,9.758333,iron-based
Dy0.2Tm0.8Ni2B2C1,9.75,heavy-Fermion
La1Fe1P0.3As0.7O1,9.743333,iron-based
Zr1Ru1Si1,9.733333,others
Hf0.8Zr0.2V2,9.73,others
Gd0.13Lu0.87Ni2B2C1,9.715,heavy-Fermion
Pb0.14Be0.86,9.7,others
Ta1C0.987,9.7,others
Fe0.9Se0.25Te0.75,9.7,iron-based
V0.795Ga0.205,9.7,others
Mo8Ga41,9.7,others
Ir0.385Nb0.615,9.7,others
La1.7Ba0.3Cu1O4,9.7,cuprate
Mn0.3Fe0.7Se0.85,9.7,iron-based
Zr0.1Nb0.75Ti0.15,9.7,others
Nb0.8Cr0.05Ga0.15,9.7,others
Zr0.25Nb0.5Ti0.25,9.7,others
Zr1Tc6,9.7,others
V0.63Al0.23Si0.14,9.7,others
V3Si0.6Sn0.4,9.7,others
Tm1Ni2B2C1,9.659,heavy-Fermion
Y1Co0.1Ni1.9B2C1,9.65,others
Zr0.31Nb0.072V0.618,9.65,others
Re0.043Be0.957,9.645,others
Zr0.333V0.666,9.64,others
Y0.56Er0.44Rh4B4,9.64,others
Fe1Se0.85,9.62,iron-based
La3In1,9.61,heavy-Fermion
Nb0.9Ti0.1,9.61,others
Os2K1O6,9.60375,others
Ba1Fe1.894Co0.042Cu0.064As2,9.6,iron-based
Re0.02Be0.98,9.6,others
La1C1.58,9.6,others
Ca0.3Ba1.45La1.25Cu3O6.96,9.6,cuprate
Hf0.1Nb0.9,9.6,others
Ir0.58Rh0.36Se2,9.6,others
Bi1K1O3,9.6,others
Cs0.93Na2C60,9.6,others
Pt0.98Nb3Rh0.02,9.6,others
Zr0.83Rh0.17,9.6,others
Sm0.75Gd1.1Ce0.15Cu1O3.97,9.6,cuprate
Sm1Rh0.1Fe0.9As1O1,9.6,iron-based
Sr1Fe1.82Ni0.18As2,9.6,iron-based
Y2C2Br0.8I1.2,9.6,others
La1.74Sr0.26Cu1O4,9.5875,cuprate
Fe1S0.04Se0.96,9.58,iron-based
Zr0.298Nb0.108V0.594,9.58,others
La1.78Sr0.22Cu0.98Zn0.02O4,9.555,cuprate
La3Cd0.1In0.9,9.55,heavy-Fermion
Hf0.8Ta0.2V2,9.54,others
Er1Fe0.02Ni1.98B2C1,9.535,heavy-Fermion
Ba0.5K0.5Mn0.1Fe1.9As2,9.53,iron-based
Hf0.05Nb0.95,9.52,others
Pt1Nb3,9.516429,others
Re1Be22,9.51,others
Ba1Fe1.924Co0.076As2,9.505,iron-based
Re0.04Be0.96,9.5,others
Re0.02Be9.8,9.5,others
Zr0.42Mo0.17C0.5,9.5,others
Fe0.99Ni0.01Se0.3Te0.7,9.5,iron-based
Mo1Ga2,9.5,others
Hf1Ru4P2,9.5,others
Re0.3Ir0.3Mo0.4,9.5,others
La1Bi1O0.4S2F0.6,9.5,others
Nb1,9.5,others
Au0.7Nb3Rh0.3,9.5,others
Nd1.85Ce0.15Cu0.96Zn0.04O4,9.5,cuprate
Pr0.925Gd0.925Ce0.15Cu1O4,9.5,cuprate
Pr1.48Y0.37Ce0.15Cu1O4,9.5,cuprate
Sr1Fe1.826Co0.174As2,9.5,iron-based
V3Ga0.6Si0.4,9.5,others
Y0.47Er0.53Rh4B4,9.5,heavy-Fermion
Hf0.95Ta0.05V2,9.49,others
Hf0.2Nb0.8,9.48,others
Er1Ni2B2C1,9.465833,heavy-Fermion
W0.05Re0.95Be22,9.45,others
Bi1.2K0.8O3,9.45,others
Zr0.65Nb0.35,9.45,others
Hf0.13Zr0.87V2,9.45,others
La3Al0.3In0.7,9.42,heavy-Fermion
Nb0.95Ti0.05,9.41,others
Sr1Fe1.72Co0.2Zn0.08As2,9.41,iron-based
Ta0.4W0.6C1,9.41,others
Au1Mo8Ga40,9.4,others
La0.84Mo6Se8,9.4,others
La0.9Nd0.1Pt2.1B2.4C1.2,9.4,heavy-Fermion
La1.85Sr0.15Cu0.966Ni0.034O4,9.4,cuprate
Cs0.75Rb0.25Na2C60,9.4,others
Nb0.55Ti0.45,9.4,others
Nb0.8Ni0.05Ga0.15,9.4,others
Nb0.795Al0.061Ge0.123Sn0.021,9.4,others
Pr1.87Ce0.13Cu1O4,9.4,cuprate
Re0.9V0.1,9.4,others
V0.683Al0.097Ga0.22,9.4,others
V0.784Al0.044Ga0.172,9.4,others
V3Ga0.32Si0.68,9.4,others
Y1Th3.4Ru0.6B4,9.4,heavy-Fermion
Nb0.3Cu0.7,9.39,others
Y0.9Bi0.1C1.45,9.35,others
Y1.8Bi0.2C2.9,9.35,others
Ba1Ru0.322Fe1.678As2,9.31,iron-based
Y0.1Nb1.9B5,9.3,others
Pb0.7Bi0.3Ba0.9K0.1O3,9.3,others
Y0.15Ho0.85Ni2B2C1,9.3,heavy-Fermion
La1.881Ba0.119Cu1O4,9.3,cuprate
Li1Fe0.98Cu0.02As1,9.3,iron-based
Nb0.33Ti0.67,9.3,others
Zr0.5Nb0.35Ti0.15,9.3,others
Nb0.79Si0.21,9.3,others
H0.995Pd1,9.275,others
Y0.001Nb0.999,9.27,others
Y0.02Nb0.98,9.26,others
Re0.01Be0.99,9.25,others
Ta0.01Nb0.29Cu0.7,9.25,others
Mo6Cu2.6S8,9.25,others
La3Ga0.3In0.7,9.25,heavy-Fermion
La1.85Ce0.15Cu1O4,9.25,cuprate
La1Bi1O0.5S2F0.5,9.25,others
Re0.77Mo0.23,9.25,others
Fe0.97Co0.03Se0.3Te0.7,9.24,iron-based
Ir0.44Rh0.5Se2,9.24,others
D0.018Nb0.982,9.23,others
Nb0.99976O0.00024,9.23,others
Au1Nb3,9.226364,others
Ta0.005Nb0.995,9.226,others
Y0.05Hf0.95V2,9.22,others
Nb1B2.26,9.2,others
Pb0.4Bi0.6Ba0.6K0.4O3,9.2,others
Re0.95Os0.05Be22,9.2,others
Re0.99Be22Ru0.01,9.2,others
Os1Be5,9.2,others
Bi1.5Pb0.5Sr1.8La0.2Cu1O5.983,9.2,cuprate
Er1Co0.02Ni0.199B2C1,9.2,heavy-Fermion
Fe1Sb0.046Se0.874,9.2,iron-based
Hf1V2.3,9.2,others
Ir0.455Nb0.455O0.09,9.2,others
La1.925Ca0.075Cu1O4,9.2,cuprate
Mo5B1.9P1.1,9.2,others
Nd0.75Pr0.25Ba2Cu3O6.85,9.2,cuprate
Yb0.4Pb0.6Mo6Se8,9.2,others
Sm0.25Fe0.75Se0.85,9.2,iron-based
Eu0.6Mo6.35Sn0.48S8,9.2,others
Tm1Co0.04Ni1.98B2C1,9.2,heavy-Fermion
Gd0.01Nb0.99,9.19,others
Hf0.9Ti0.1V2,9.19,others
Y0.1Hf0.9V2,9.19,others
Gd0.001Nb0.999,9.18,others
Ta0.4Mo0.6C1,9.18,others
Nb0.8Co0.05Ga0.15,9.17,others
Nb1B2.34,9.16,others
V4.5Ga1,9.15,others
D0.13Nb1,9.12,others
Nb0.997N0.003,9.12,others
Re0.82Nb0.18,9.116667,others
Zr0.75Nb0.25,9.116667,others
Hf0.99Ta0.01V2,9.11,others
Nb0.84B2,9.1,others
Ca1Fe0.93Co0.07F1,9.1,others
La1.85Sr0.15Cu0.982Al0.018O4,9.1,cuprate
Mo1.8Rh0.2B1C1,9.1,others
Zr0.07Nb0.19Ti0.74,9.1,others
Nb3Al0.3Ge0.7,9.1,others
Nd1.85Ce0.15Cu1O4.037,9.1,cuprate
Ir0.37Rh0.57Se2,9.09,others
Ta0.01Nb0.99,9.079,others
Nb0.36Ti0.64,9.05,others
Pb7Bi3,9.05,others
Ta0.462Ti0.538,9.05,others
Y0.28Er0.72Rh4B4,9.05,heavy-Fermion
Nb0.29Cu0.7In0.01,9.04,others
Er0.97Tm0.3Rh4B4,9.03,heavy-Fermion
Nb0.99861O0.00139,9.03,others
Ta0.02Nb0.98,9.02,others
Pb1Bi1As1,9,others
Pb1Bi1As1Sb1,9,others
Pr0.005Bi0.995Ba0.47K0.53O3,9,others
Be0.62Si0.38,9,others
Bi2Sr2Ca0.4Y0.6Cu2O8,9,cuprate
W0.54C0.46,9,others
Hf0.15Mo0.85C1,9,others
C1S1,9,others
Cu2Mo6S6O2,9,others
Dy0.4Tm0.6Ni2B2C1,9,heavy-Fermion
Bi1.085K0.915O3,9,others
La0.9Pr0.1Pt2.1B2.4C1.2,9,heavy-Fermion
La1.07Pr0.85Sr0.08Cu1O4,9,cuprate
La1.575Nd0.3Sr0.125Cu1O4,9,cuprate
La1.882Ba0.118Cu1O4,9,cuprate
La1.8Sr0.2Cu0.9703Zn0.0297O4,9,cuprate
Lu1Th3.4Ru0.6B4,9,heavy-Fermion
W0.9Mo0.1C1,9,others
Mo0.8B0.1P0.1,9,others
K2Na1H2.55C60N0.85,9,others
Ta0.8Nb0.2C1,9,others
Ta0.06Nb0.31Ti0.62,9,others
Nb0.75Si0.25,9,others
Nb2.58Ti0.42Al1,9,others
Nd1Fe0.9Co0.1As1O0.89F0.11,9,iron-based
Zr0.9Ru0.05Pd0.05,9,others
Pr1.9Ce0.1Cu1O3.98,9,cuprate
Sm1Fe0.94Ni0.06As1O1,9,iron-based
V0.709Al0.14Ga0.151,9,others
V2.898Mn0.102Ga1,9,others
Y0.4Pr0.6Ba2Cu3O6.95,9,cuprate
Y1Rh4B1Si2,9,others
Zr1Ru1Ge1,9,others
Nb0.44Ti0.56,8.99,others
Ta0.02Nb0.34Ti0.64,8.99,others
Hf1V2,8.984,others
Hf0.4Zr0.6V2,8.98,others
Ta0.2W0.8C1,8.96,others
Ba1Ru0.72Fe1.28As2,8.95,iron-based
Ca1H1Fe0.74Co0.26As1,8.95,iron-based
V1N1,8.95,others
Y5Os4Ge10,8.946667,others
Sr1Fe1.85Ni0.15As2,8.93,iron-based
Mg0.4B2Al0.6,8.925,others
Y1Ir2Rh2B4,8.92,others
Ta1C0.002N0.937,8.91,others
La1.5Nd0.4Sr0.1Cu1O4,8.906667,cuprate
Hf0.5Nb0.5,8.905,others
La3Tl1,8.905,heavy-Fermion
Mo4.8Ag1.2S6,8.9,others
Zr0.1Mo1.9B5,8.9,others
Pb1Bi1Sb1,8.9,others
Ta0.15Mo0.85C1,8.9,others
Ca2Nb1O4,8.9,others
Y0.25Ho0.75Ni2B2C1,8.9,heavy-Fermion
La3Tl0.5In0.5,8.9,others
La1.85Sr0.15Cu0.982Co0.018O4,8.9,cuprate
Re0.3Pt0.05Mo0.65,8.9,others
Mo5B2.1P0.9,8.9,others
Nb1N0.8,8.9,others
Pt0.95Nb3Rh0.05,8.9,others
Ta0.05Zr0.95V2,8.9,others
Ta0.04Nb0.32Ti0.64,8.9,others
V0.75Al0.0375Ge0.2125,8.9,others
Tm1Rh4B4,8.888,heavy-Fermion
Ta0.04Nb0.96,8.87,others
Ta0.009Nb0.991,8.87,others
Nb0.78Mn0.02Ga0.2,8.87,others
Er0.97Tm0.15Rh4B4,8.86,heavy-Fermion
Er0.15Lu0.85Ru1B2,8.86,heavy-Fermion
Zr0.6Nb0.4,8.86,others
Fe1Sb0.184Se0.736,8.85,iron-based
Hf0.2Zr0.8V2,8.85,others
Fe1Se0.88,8.843333,iron-based
Hf1N1,8.83,others
Ho0.75Lu0.25Ni2B2C1,8.81,heavy-Fermion
Hf0.05Mo0.95C0.65,8.81,others
Sc0.2Mo1.8B5,8.8,others
Pb0.44Bi0.56,8.8,others
Pb0.35Bi0.65,8.8,others
Fe0.98Se0.15Te0.9,8.8,iron-based
Bi1K1.1O3,8.8,others
La1.875Ba0.075Sr0.05Cu1O4,8.8,cuprate
La1Fe1P0.8As0.2O0.9F0.1,8.8,iron-based
La1Nd0.85Ce0.15Cu1O4,8.8,cuprate
Lu1Co0.18Ni0.91B2C1,8.8,heavy-Fermion
Pt0.15Mo0.85,8.8,others
Ta0.11Re0.78Nb0.11,8.8,others
Zr0.394Nb0.502Mo0.104,8.8,others
Y1Tc2,8.8,others
Zr0.42V2.58Si1,8.8,others
Hf0.8Ti0.2V2,8.8,others
V3Al0.1Ge0.9,8.8,others
H0.28Zr2Rh1,8.8,others
Eu0.43Sr0.57Fe1.76Co0.24As2,8.78,iron-based
Ba1Fe1.7Co0.22Zn0.08As2,8.77,iron-based
Ho0.8Lu0.2Ni2B2C1,8.77,heavy-Fermion
Ho0.95Lu0.05Ni2B2C1,8.77,heavy-Fermion
Ho0.9Lu0.1Ni2B2C1,8.77,heavy-Fermion
Ir0.64Rh0.3Se2,8.77,others
Er0.1Lu0.9Ru1B2,8.77,heavy-Fermion
Ta0.06Nb0.94,8.76,others
Ta0.016Nb0.984,8.76,others
Sc0.75Th0.25Rh4B4,8.74,others
Ta0.08Nb0.28Ti0.64,8.74,others
Y0.12Er0.88Rh4B4,8.74,heavy-Fermion
W1Re3,8.733333,others
Ta0.075Nb0.285Ti0.64,8.73,others
Ca1Fe0.85Ni0.15As1F1,8.72,iron-based
Ho0.7Lu0.3Ni2B2C1,8.72,heavy-Fermion
Ho0.85Lu0.15Ni2B2C1,8.72,heavy-Fermion
Tm0.1Lu0.9Ru1B2,8.72,heavy-Fermion
Zr1Ru1As1,8.716667,others
Bi1Ba0.37K0.63O2.952,8.71,others
Re0.16Mo0.64B0.1P0.1,8.71,others
Pr1Fe1P0.8As0.2O0.9F0.1,8.71,iron-based
Ba1Fe1.918Co0.044Cu0.038As2,8.7,iron-based
Pb0.85Bi0.15Ba1O3,8.7,others
Pb0.65Bi0.35,8.7,others
Ca1Rh1.2Sn4.5,8.7,others
La0.84Ce0.16,8.7,others
Ir0.29Nb0.3Mo0.41,8.7,others
Bi1Ca0.25K0.75O3,8.7,others
Mo5B2P1,8.7,others
Zr0.62Nb0.38,8.7,others
Nb0.8Ni0.06Ga0.14,8.7,others
Yb0.5Pb0.5Mo6Se8,8.7,others
Sr1Pd0.15Fe1.85As2,8.7,iron-based
Tc0.875Ti0.125,8.7,others
Tm1Co0.06Ni1.97B2C1,8.7,heavy-Fermion
V3Ga0.4Si0.6,8.7,others
V3Si0.6Ge0.4,8.7,others
Y1Mn0.2Ni1.8B2C1,8.7,others
Y1Ru0.06Ni1.94B2C1,8.7,others
Zr0.96V0.04B2,8.7,others
Pb0.32Bi0.525Sn0.155,8.68,others
Y0.8Pr0.2Ni2B2C1,8.68,others
Ta0.6Mo0.4C1,8.67,others
Y0.9Gd0.1Rh4B4,8.66,others
Fe1Se0.8,8.65,iron-based
Sr1Fe1.84Ni0.16As2,8.65,iron-based
Ta1C1,8.6375,others
Pb0.7Bi0.3,8.63,others
Os0.2Be0.8,8.6,others
Re0.7Be22Mo0.3,8.6,others
Re0.6Be22Mo0.4,8.6,others
Bi2Te1,8.6,others
Fe0.99Cu0.01Se0.85,8.6,iron-based
La1.82Ba0.18Cu0.99Ga0.01O4,8.6,cuprate
Sc4La3,8.6,heavy-Fermion
Zr0.8Nb0.2,8.6,others
Zr0.05Nb0.35Ti0.6,8.6,others
Nb0.8Cr0.06Ga0.14,8.6,others
Ta0.25Nb0.25Ti0.5,8.6,others
Nb5Sb4,8.6,others
V0.75Al0.025Ge0.225,8.6,others
Zr0.3V0.7,8.6,others
Yb1.2Mo6S8,8.6,others
Yb1Rh1.4Sn4.6,8.6,heavy-Fermion
Mo1Ga4,8.593333,others
V0.7003Fe0.0497Ga0.25,8.59,others
La1Fe0.975Co0.025As1O1,8.58,iron-based
Mg1Fe0.1Ni2.9C1,8.58,others
V0.75Si0.125Ge0.125,8.58,others
La1.885Sr0.115Cu0.99Zn0.01O4,8.56,cuprate
Zr0.67Rh0.29Pd0.04,8.56,others
Ta0.1Nb0.26Ti0.64,8.56,others
Zr0.284Nb0.148V0.568,8.56,others
Ta0.043Nb0.957,8.55,others
Ba1Fe2P1.28As0.72,8.545,iron-based
Fe1Se0.94,8.545,iron-based
Tb0.1Er0.9Ni2B2C1,8.52,heavy-Fermion
Fe0.9Al0.1Se0.85,8.5,iron-based
Fe0.75Al0.25Se0.85,8.5,iron-based
B1,8.5,others
Ba7.76Si46,8.5,others
Pb0.25Bi0.5Sn0.25,8.5,others
Pb0.25Bi0.5Sn0.26,8.5,others
Pb0.31Bi0.5Sn0.19,8.5,others
Nb1C0.1N0.9,8.5,others
Ta0.25Mo0.75C1,8.5,others
Er1Fe0.06Ni1.94B2C1,8.5,heavy-Fermion
Nb0.25Ti0.72Fe0.03,8.5,others
Fe0.95Se0.25Te0.75,8.5,iron-based
Fe1.14S0.09Te0.91,8.5,iron-based
La2.9952Gd0.0048In1,8.5,heavy-Fermion
Li0.33V2O5,8.5,others
Re0.3Pt0.1Mo0.6,8.5,others
Re0.18Mo0.82,8.5,others
Rb2Na1H2.79C60N0.93,8.5,others
Nb4N5,8.5,others
Re0.86Nb0.14,8.5,others
Nb0.5Ti0.2V0.3,8.5,others
Nb0.99445O0.00555,8.5,others
Sc1C0.75Ge0.02,8.5,others
Sm1.295Gd0.555Ce0.15Cu1O4,8.5,cuprate
Ta0.8Mo0.2C1,8.5,others
Y1Ru4P12,8.5,others
Zr1Ru1P1,8.496154,others
Mo1C0.64,8.45,others
Fe1.02S0.4Se0.1Te0.5,8.45,others
Eu0.5Sr0.5Fe1.76Co0.24As2,8.45,iron-based
Yb1Mo6S8,8.45,others
Ba1Ru0.36Fe1.64As2,8.43,iron-based
Ho0.5Lu0.5Rh4B4,8.43,others
Hf1H0.4V2,8.42,others
Ta0.062Nb0.938,8.42,others
Nb0.98Mo0.02,8.41,others
Sc5Rh4Si10,8.405,others
Pb1As1,8.4,others
Hf0.2Mo1.8B5,8.4,others
Bi1Ba0.19K0.81O3,8.4,others
Pb0.5Bi0.5,8.4,others
Ca5C60,8.4,others
Ta0.1Nb0.9,8.4,others
Au1Nb2.85V0.15,8.4,others
Ta0.1Nb0.25Ti0.65,8.4,others
Nd1.85Ce0.15Cu0.994Ni0.006O4,8.4,cuprate
Pb1Mo6S7Se1,8.4,others
U0.1Pu0.9Co1Ga5,8.4,heavy-Fermion
Re0.71V0.29,8.4,others
V2.781Co0.219Ga1,8.4,others
Zr1Ru1B0.05P0.95,8.4,others
Ir0.3Rh0.64Se2,8.39,others
Pt3Sr1P1,8.375,others
Er1Fe0.04Ni1.96B2C1,8.355,heavy-Fermion
Th1D3.61,8.35,others
Th1H3.63,8.35,heavy-Fermion
Bi1.1K0.9O3,8.35,others
Zr1V2,8.346667,others
La3Se4,8.326,others
Ta0.12Nb0.24Ti0.64,8.32,others
Sc5Ir4Si10,8.311429,others
Nb0.97Al0.01O0.02,8.3,others
Nb0.3Mo1.7B5,8.3,others
Ba1Rh0.262Fe1.738As2,8.3,iron-based
Re0.4Be22Mo0.6,8.3,others
Pb0.74Bi0.26,8.3,others
La1C1.3,8.3,others
Fe1Sb0.092Se0.828,8.3,iron-based
La1.84Ba0.16Cu0.99Ga0.01O4,8.3,cuprate
Li1.16Ti1.84O4,8.3,others
Mg1Be0.6B1.4,8.3,others
Re13Mo7B1,8.3,others
Cs0.88Na2C60,8.3,others
Nb2.1Mo0.9Al1,8.3,others
Nb3Si0.5Sn0.5,8.3,others
W0.27Re0.73,8.3,others
Tm1Th3.4Ru0.6B4,8.3,heavy-Fermion
Zr0.4V0.6,8.3,others
Y0.5Th0.5Ni1C2,8.3,others
Nb3Ag1,8.28,others
Ta0.685Ti0.315,8.28,others
Re0.185Mo0.815,8.27,others
La1Pt4Ge12,8.253333,heavy-Fermion
D0.966Pd1,8.25,others
Fe1.01Se1,8.25,iron-based
Ga1P1,8.25,others
Y2C2Cl0.5I1.5,8.25,others
Hf1D0.25V2,8.24,others
Ho0.21Er0.79Rh4B4,8.22,heavy-Fermion
Gd0.02Er0.98Rh4B4,8.22,heavy-Fermion
Ba7.61Si46,8.2,others
Pb0.25Bi0.5Cd0.125Sn0.125,8.2,others
Pb0.25Bi0.5Cd0.25Sn0.12,8.2,others
Er0.2Th1.8C3,8.2,others
Er0.4Th1.6C3,8.2,others
Er1Co0.04Ni1.98B2C1,8.2,heavy-Fermion
Fe0.95Co0.05Se0.3Te0.7,8.2,iron-based
Fe1Se0.07Te0.93,8.2,iron-based
La1.69Nd0.2Ba0.11Cu1O4,8.2,cuprate
La1.88Ba0.12Cu0.99Ga0.01O4,8.2,cuprate
La1Fe0.918Zn0.082As1O0.68F0.28,8.2,iron-based
La2.98Ce0.02In1,8.2,heavy-Fermion
Cs0.5Rb0.5Na2C60,8.2,others
Nb1Si1As1,8.2,others
Nb3Ge0.27Sn0.73,8.2,others
Nb0.791Al0.021Ge0.094Sn0.094,8.2,others
Y1Fe0.1Ni1.9B2C1,8.2,others
Zr0.95V0.05B2,8.2,others
Ba1Ru0.45Fe1.55As2,8.18,iron-based
Ta0.18Nb0.18Ti0.64,8.18,others
Pb0.8Bi0.2,8.15,others
Ta0.13Nb0.87,8.15,others
V0.75Ga0.125Si0.125,8.15,others
Ba8Si46,8.1425,others
D0.967Pd1,8.14,others
Zr0.034Mo0.816B2,8.14,others
Y1Co0.14Ni1.86B2C1,8.13,others
Fe1Se0.779Te0.041,8.12,iron-based
Dy0.1Ho0.9Ni2B2C1,8.116667,heavy-Fermion
Zr0.0352Mo0.8448B2,8.11,others
Fe1Se0.98,8.105,iron-based
Au0.15Sb0.85,8.1,others
W0.45C0.55,8.1,others
Er0.6Th1.4C3,8.1,others
H0.37V3Ga1,8.1,others
Gd0.71Pr1.14Ce0.15Cu1O4,8.1,cuprate
Bi1.05K0.95O3,8.1,others
La1.75Sr0.25Cu0.98Ni0.02O4,8.1,cuprate
La2Pt3Ge5,8.1,heavy-Fermion
Re13Mo7C1,8.1,others
Nb0.8Ni0.07Ga0.13,8.1,others
Nb0.8Co0.06Ga0.14,8.1,others
Nb0.99078O0.00922,8.1,others
V2.49Mn0.42Si1,8.1,others
V3Ga0.75Si0.25,8.1,others
Y0.8Gd0.2Ni2B2C1,8.1,others
Sc0.2Y0.8Ru1B2,8.1,others
Zr1Ru1B0.1P0.9,8.1,others
Ir0.76Rh0.18Se2,8.09,others
Ta0.15Nb0.85,8.08,others
Ho0.27Er0.73Rh4B4,8.06,heavy-Fermion
Gd0.03Er0.97Rh4B4,8.06,heavy-Fermion
Pb0.375Bi0.625,8.05,others
Mo6Cu3.2S8,8.05,others
Th1D3.63,8.05,others
Nb0.6B2,8.04,others
Ir1Mo3,8.031,others
Pb0.425Bi0.575,8.03,others
Th4H15,8.025,heavy-Fermion
Y0.1Mo1.9B5,8,others
Ba0.779Na0.221Fe2As2,8,iron-based
Ba0.83K0.17Fe2As2,8,iron-based
Ba1Fe1.79Co0.11Zn0.1As2,8,iron-based
Ba1Mn0.03Fe1.84Co0.13As2,8,iron-based
Bi2Sr1.3Sm0.7Cu1O6.405,8,cuprate
Bi2Sr2Cu1O6.36,8,cuprate
Ca0.1Ba1.65La1.25Cu3O6.98,8,cuprate
Ca14Cu24O40.93,8,cuprate
Zr2Rh0.4Co0.6,8,others
Cu2Cr0.25Sr2Y1.3Ce0.7O8.87,8,cuprate
Fe0.5Ba2Sm1Cu2.5O7.54,8,cuprate
Fe1Se0.72,8,iron-based
Ta3Ge1,8,others
Ir0.25Zr0.75,8,others
La1.737Sr0.263Cu1O4,8,cuprate
La1.85Sr0.15Cu0.9775Zn0.0225O4,8,cuprate
La1.8Sr0.2Cu0.65Ni0.35O4,8,cuprate
La1Rh4B1Si2,8,heavy-Fermion
Li0.15Sr2Cu1Br2O2,8,cuprate
Mg1Fe0.2Ni2.8C1,8,others
Nb0.04Mo0.96Ga4,8,others
Nb0.02Mo0.98Ga4,8,others
K2Na1H3C60N1,8,others
Nb0.25Ti0.65V0.1,8,others
Nd1.48Tb0.38Ce0.15Cu1O4,8,cuprate
Nd1.85Ce0.15Cu0.95Zn0.05O4,8,cuprate
Y0.92Ca0.08Sr2Cu2.5Fe0.5O6.92,8,cuprate
Os1Zr1As1,8,others
La1.52Nd0.4Sr0.08Cu1O4,7.98,cuprate
Eu0.6Sr0.4Fe1.76Co0.24As2,7.97,iron-based
Tm1Fe0.04Ni1.96B2C1,7.97,heavy-Fermion
Nb0.7B2,7.96,others
Ir0.82Rh0.12Se2,7.96,others
Pb0.9Bi0.1,7.95,others
Er1Ir0.4Rh3.6B4,7.95,heavy-Fermion
Eu0.7Mo6.35Sn0.36S8,7.94,others
Mo4Ag1S5,7.923333,others
La1Pt4Ge13,7.92,heavy-Fermion
La2.9889Gd0.0111In1,7.92,heavy-Fermion
Zr0.0364Mo0.8736B2,7.92,others
Nb0.8Co0.07Ga0.13,7.92,others
Sc2.5Lu2.5Ir4Si10,7.915,heavy-Fermion
Sc4.75Lu0.25Ir4Si10,7.91,others
V1N0.99,7.91,others
Er1Th3.4Ru0.6B4,7.9,heavy-Fermion
La2.98Gd0.02In1,7.9,heavy-Fermion
Ir0.375Nb0.625,7.9,others
Ir1Nb1,7.9,others
La0.5Th0.5Ni1C2,7.9,others
Pt0.9Nb3Rh0.1,7.9,others
Yb0.6Pb0.4Mo6Se8,7.9,others
Y2C2Br1I1,7.9,others
Dy0.15Ho0.85Ni2B2C1,7.895,heavy-Fermion
W0.4Tc0.6,7.89,others
Pr1Pt4Ge12,7.876,heavy-Fermion
Ba0.5K0.5Fe1.7Zn0.3As2,7.86,iron-based
La1Bi1O0.3S2F0.7,7.86,others
Ta0.52Ti0.48,7.86,others
Fe1.06Se0.14Te0.83,7.85,iron-based
La1.84Sr0.16Cu0.97Zn0.03O4,7.85,cuprate
Er0.2Lu0.8Ru1B2,7.85,heavy-Fermion
Mo0.6Ru0.4,7.85,others
Re4Mo1,7.85,others
Ta0.197Nb0.803,7.85,others
Ta0.05Nb0.25Ti0.7,7.85,others
Nb0.9868O0.0132,7.85,others
Zr0.92Rh0.08,7.85,others
Y0.6Th0.4Ni1C2,7.85,others
La0.7Nd0.3Pt2.1B2.4C1.2,7.84,heavy-Fermion
Ba1Fe1.92Co0.08As2,7.833333,iron-based
Yb3Rh4Sn13,7.833333,heavy-Fermion
Fe1Se0.82,7.83,iron-based
H0.05Nb0.95,7.83,others
Pb0.95Sb0.05,7.83,others
Nb0.95Mo0.05,7.815,others
Y0.79Gd0.21Ni2B2C1,7.81,others
Pb0.77Bi0.23,7.8,others
Hf0.8Nb0.8C1,7.8,others
La3In0.8Sn0.2,7.8,heavy-Fermion
La1Fe1P1O0.97F0.03,7.8,iron-based
La1Fe1P1O0.92F0.08,7.8,iron-based
Nb0.22Ti0.8,7.8,others
Nb0.5Ti0.3V0.2,7.8,others
Nb5B0.6Si2.4,7.8,others
Nb0.807Al0.019Ge0.155Sn0.019,7.8,others
Pb1P1,7.8,others
Pr2Pt3Ge5,7.8,heavy-Fermion
Zr0.6V0.4,7.8,others