Formula,Tc,Materials_family
La0.222V2.778Ga1,7.8,others
V3Ga0.48Si0.52,7.8,others
Er1Rh4B4,7.795,heavy-Fermion
Tc1,7.794167,others
Nb0.8Mn0.02Ga0.18,7.79,others
Ta0.26Nb0.1Ti0.64,7.78,others
Mo1B2.5,7.775,others
La0.09Ba0.91Fe2As2,7.76,iron-based
Eu1.85Ce0.15Cu1O4,7.75,cuprate
Hf0.36Zr0.02Nb0.62,7.75,others
Li2Pd3B0.95Al0.05,7.75,others
Pb0.36Sn0.64,7.75,others
Lu2Ir3Si4.9Ge0.1,7.74,heavy-Fermion
Ba1Fe2P1.26As0.74,7.73,iron-based
Ca2.8Rh4Co0.2Sn13,7.73,others
Mo6Ag1S8,7.7,others
Pb0.93Bi0.07,7.7,others
Pb0.55Bi0.45,7.7,others
Ta0.5Mo0.5C1,7.7,others
Re1Hg0.44O3,7.7,others
La0.6Th0.4Ni1C2,7.7,others
La2.916Pr0.084Tl1,7.7,heavy-Fermion
Li2Pd2.94Ni0.06B1,7.7,others
Zr0.45Nb0.25Ti0.3,7.7,others
Zr0.35Nb0.25Ti0.4,7.7,others
Zr0.1Nb0.25Ti0.65,7.7,others
Nb0.25Ti0.7V0.05,7.7,others
Nb4Ni1Si1,7.7,others
W1Rb0.33O3,7.7,others
Ta0.455Zr0.545,7.7,others
Tm1Co0.08Ni1.96B2C1,7.7,heavy-Fermion
Zr0.01Ti0.49V0.5,7.7,others
Y0.75Pr0.25Ni2B2C1,7.7,others
Y1Ru1B2,7.7,others
Na0.33V2O5,7.666667,others
Sc1.5Lu3.5Ir4Si10,7.665,heavy-Fermion
Li2Pd2.85Ni0.15B1,7.663333,others
Li1Fe0.925Co0.075As1,7.66,iron-based
Sc4Lu1Ir4Si10,7.655,heavy-Fermion
Ba7Ca1Si46,7.65,others
Zr3Rh1,7.65,others
Mo0.96Ru0.04Ga4,7.63,others
Re0.7Mo0.3,7.62,others
Ta0.2Nb0.8,7.62,others
Gd0.05Er0.95Rh4B4,7.61,heavy-Fermion
Ir0.85Rh0.09Se2,7.61,others
Li2Pd3B1,7.61,others
Au0.22Nb0.78,7.6,others
Pb0.83Bi0.17Ba1O3,7.6,others
Mo4.8C0.6Si0.3,7.6,others
Mo4.8C0.6Si3,7.6,others
Ca0.4Ba1.15La1.45Cu3O7.12,7.6,cuprate
La0.4Th0.6Ni1C2,7.6,others
La1Ru3.5Si2,7.6,heavy-Fermion
Re0.6Nb0.2Mo0.2,7.6,others
Re0.5Mo0.5,7.6,others
Zr0.9Nb0.1,7.6,others
Nb0.4Ti0.4V0.2,7.6,others
Nb0.97Tc0.03,7.6,others
Nb2C1S2,7.6,others
Nb3Ge0.61Sn0.39,7.6,others
Zr1Tc2,7.6,others
Zr0.33Ti0.17V0.5,7.6,others
V0.75Al0.0125Ge0.2375,7.6,others
La1Os2,7.575,heavy-Fermion
Nb0.5B2,7.56,others
V0.7005Co0.0495Ga0.25,7.56,others
Er1Ir1.6Rh2.4B4,7.56,heavy-Fermion
La2.91Pr0.09Tl1,7.55,heavy-Fermion
Ta0.01Nb0.25Ti0.74,7.55,others
Ba1Fe1.83Co0.09Zn0.08As2,7.54,iron-based
Dy0.426Lu0.574Ni2B2C1,7.54,heavy-Fermion
Pt2.7Sr1Pd0.3P1,7.54,others
D0.952Pd1,7.536,others
Ho1Ni2B2C1,7.532353,heavy-Fermion
Ho0.1Lu0.9Ru1B2,7.53,heavy-Fermion
Na1Fe0.92Co0.08As1,7.53,iron-based
Ta0.36Ti0.64,7.53,others
La1Fe1P0.75As0.25O1,7.52,iron-based
W0.5Tc0.5,7.52,others
Ti0.42V0.58,7.52,others
Zr0.0384Mo0.9216B2,7.51,others
V0.8Si0.2,7.51,others
Au0.1Sb0.9,7.5,others
Y6B6,7.5,others
Ba8Ga16Ge30,7.5,others
Pb0.32Cd0.18Sn0.5,7.5,others
Pb0.75Bi0.25Sr1Cs1O3,7.5,others
Hf1Nb1C1,7.5,others
Y0.01La0.99Mn0.005Fe0.995As1O0.89F0.11,7.5,iron-based
La1.475Nd0.4Ba0.125Cu1O4,7.5,cuprate
Dy0.4Lu0.6Ni2B2C1,7.5,heavy-Fermion
Lu1Co0.22Ni1.89B2C1,7.5,heavy-Fermion
Mg0.6Zn0.2B2Al0.2,7.5,others
Mo2B1C1,7.5,others
Nb1S2,7.5,others
Nb0.01Ti0.49V0.5,7.5,others
Zr0.65Nb0.25Ti0.1,7.5,others
Zr0.55Nb0.25Ti0.2,7.5,others
Zr0.05Nb0.25Ti0.7,7.5,others
Nb2In1C1,7.5,others
Zr3V3O1,7.5,others
Zr0.9Pd0.1,7.5,others
Pr0.74Gd1.11Ce0.15Cu1O4,7.5,cuprate
W1Ru1,7.5,others
Sm1Fe0.96Ni0.04As1O1,7.5,iron-based
Pd0.33V2.67Si1,7.5,others
Ce0.21V2.79Ga1,7.5,others
Pt3.981Ca10Fe9.019As18,7.49,iron-based
Ir0.19Rh0.75Se2,7.49,others
Li2Pd3B0.9Al0.1,7.49,others
Ti0.415V0.585,7.49,others
Pr1Fe0.85Co0.15As1O1,7.485,iron-based
Ca3Rh4Sn13,7.4775,others
Pr1Fe0.9Co0.1P0.5As0.5O1,7.46,others
Nb1B2.1,7.45,others
Pb0.57Sn0.43,7.45,others
Y0.7Th0.3Ni1C2,7.445,others
La0.03Ho0.97Ni2B2C1,7.44,heavy-Fermion
Mg1Co0.05Ni2.95C1,7.42,others
Nb0.78Mn0.03Ga0.19,7.42,others
Ba1Fe1.945Ni0.055As2,7.4,iron-based
Ba1Mo0.052Fe1.948As2,7.4,iron-based
C1,7.4,others
Mo3C2,7.4,others
Er1Pb2,7.4,heavy-Fermion
Nb0.1Ti0.86Fe0.04,7.4,others
Fe1Se0.92,7.4,iron-based
Bi1.15K0.85O3,7.4,others
Re0.25Pt0.1Mo0.65,7.4,others
Re0.225Pt0.075Mo0.7,7.4,others
Nb0.25Ti0.75,7.2,others
Nb0.375V0.375Sn0.25,7.4,others
Ta0.01Nb0.24Ti0.75,7.4,others
Nb0.25Mo0.05Ti0.7,7.4,others
Zr0.01Nb0.25Ti0.74,7.4,others
Nb3Al0.15Ge0.85,7.4,others
Pt0.7Nb3Rh0.3,7.4,others
Nb0.05Ti0.45V0.5,7.4,others
Sr1Fe1.8Ni0.2As2,7.4,iron-based
Nb1.5V1.5Sb1,7.4,others
V3Ga0.54Si0.46,7.4,others
H0.985Pd1,7.39,others
Tm1Fe0.08Ni1.92B2C1,7.39,heavy-Fermion
Pb0.95Bi0.05,7.388,others
Bi2Sr2Cu1O6,7.38,cuprate
Pt3.41Ca10Fe9.59As18,7.38,iron-based
H0.1Nb0.9,7.38,others
Ti0.4V0.6,7.38,others
Re0.58Mo0.42,7.375,others
Er1Ir2Rh2B4,7.37,heavy-Fermion
Fe1S0.2Te0.8,7.36625,iron-based
Ir1Zr2,7.365,others
H0.983Pd1,7.355,others
Tc0.7V0.3,7.355,others
Pb0.95Bi0.06,7.35,others
Er1Fe0.04Ni1.96B2C0.99,7.35,heavy-Fermion
Mg1Ni3C1.25,7.35,others
Bi0.4Sn0.6,7.34,others
Dy0.1Lu0.9Ru1B2,7.34,heavy-Fermion
Hf1H0.5V2,7.33,others
Hf0.5Nb0.5N0.98,7.33,others
Nb0.98O0.02,7.33,others
Ho0.54Er0.46Rh4B4,7.32,heavy-Fermion
La1Ru3Si2,7.316,heavy-Fermion
Er1Fe0.035Ni1.965B2C1,7.31,heavy-Fermion
Mo0.64Ru0.16P0.2,7.31,others
Ti0.2V0.8,7.305,others
Bi0.8Sn0.2,7.3,others
Eu1.85Ce0.15Cu1O3.98,7.3,cuprate
Nb3Ga0.5Ge0.5,7.3,others
Hf0.025Re0.975,7.3,others
In0.7Sn0.3,7.3,others
La1.85Sr0.15Cu0.975Zn0.025O4,7.3,cuprate
La2Cu0.97Zn0.03O4.1,7.3,cuprate
Gd0.12Lu0.88Ni2B2C1,7.3,heavy-Fermion
Mg1Ni3C0.978,7.3,others
Nb0.25Mo0.01Ti0.74,7.3,others
Nb0.25Ti0.5V0.25,7.3,others
Nb3Al0.39Ge0.61,7.3,others
Nd1.85Ce0.15Cu0.995Co0.005O4,7.3,cuprate
W0.7Rh0.3,7.3,others
Ti2In1N1,7.3,others
W7Re13C1,7.3,others
Tm0.2Lu0.8Ru1B2,7.295,heavy-Fermion
Mg1Co0.1Ni2.9C1,7.29,others
Pb0.9904Sb0.0096,7.29,others
Pu1Rh1Ga5,7.283333,heavy-Fermion
Fe1S0.25Te0.75,7.28,iron-based
H0.33Nb0.67,7.28,others
Sc1Ru4B4,7.27,others
Pb0.95Sn0.05,7.268,others
Pb0.975Ag0.15Sn0.01,7.25,others
K0.05Mo1O1.63,7.25,others
W0.05Nb0.95,7.25,others
La1.83Sr0.17Cu0.96Ni0.04O4,7.233333,cuprate
Li2Pd2.7Ni0.3B1,7.233333,others
Tb0.15Er0.85Ni2B2C1,7.225,heavy-Fermion
La1.821Ce0.179Cu1O4,7.225,cuprate
Pb0.9895Bi0.0105,7.214,others
Tl0.025Pb0.95Bi0.025,7.214,others
Pb0.9769Sn0.0231,7.213,others
La1Fe1P1O0.95F0.05,7.21,iron-based
Zr0.18Nb0.21Ti0.61,7.21,others
Be0.9Al0.1,7.2,others
Bi1Ba0.4K0.6O3,7.2,others
Pb0.5Bi0.5Ba0.6K0.4O3,7.2,others
Pb0.7Bi0.3Ba0.8K0.2O3,7.2,others
Ba6Sr2Si46,7.2,others
Ho1Co0.004Ni1.998B2C1,7.2,heavy-Fermion
La0.7Th0.3Ni1C2,7.2,others
Pb1Li1,7.2,others
Mg1Co0.2Ni2.8C1,7.2,others
Mg1Ni3Cu1,7.2,others
Mo3O5,7.2,others
Pb0.72Na0.28,7.2,others
Na1Al1Si1,7.2,others
Re0.74Nb0.26,7.2,others
Zr0.25Nb0.25Ti0.5,7.2,others
Pt1Pb1,7.2,others
Sr1Fe1.86Co0.14As2,7.2,iron-based
Sc0.6Th1.4C3,7.2,others
Ti0.516V0.484,7.2,others
U0.9Np0.1Co1Ga5,7.2,heavy-Fermion
V3Ga0.7Sn0.3,7.2,others
V3Si0.4Ge0.6,7.2,others
La0.1Ce0.9Ru2,7.194,heavy-Fermion
Pb0.995In0.005,7.181,others
La0.05Ce0.95Ru2,7.181,heavy-Fermion
La1Ir0.05Fe0.95As1O1,7.18,iron-based
Mo0.61Ru0.39,7.18,others
W0.6Tc0.4,7.18,others
In0.5Sn0.5,7.175,others
Pb0.99In0.01,7.173,others
Pb0.9Sn0.1,7.17,others
Ba1Pd0.134Fe1.866As2,7.16,iron-based
Pb0.98In0.02,7.15,others
Nb0.797Al0.02Ge0.122Sn0.061,7.15,others
Ti0.6V0.4,7.15,others
Mo0.994Mn0.006Ga4,7.14,others
Tl0.0152Pb0.9848,7.135,others
Hg0.0307Pb0.9693,7.134,others
Pb1Mo6S1Se7,7.13,others
Pb0.9737Cd0.0263,7.124,others
Nb0.95V0.05N0.85,7.12,others
Pb0.9Zn0.1,7.12,others
La1Bi1O0.8S2F0.2,7.11,others
La2.9579Ce0.0421In1,7.11,heavy-Fermion
Pb0.9707In0.0293,7.109,others
Nb0.895Al0.04O0.06,7.1,others
Mo1.7Ti0.3B5,7.1,others
Ba1Ru0.76Fe1.24As2,7.1,iron-based
Ba8Si43Ge3,7.1,others
Mg1Co0.4Ni2.6C1,7.1,others
Mo6Se5Br3,7.1,others
Nb0.1Ti0.4V0.5,5.3,others
Ta0.05Nb0.2Ti0.75,7.1,others
Nb0.8Mn0.03Ga0.17,7.1,others
Nd1Rh0.05Fe0.95As1O1,7.1,iron-based
Yb0.7Pb0.3Mo6Se8,7.1,others
Tl0.35Sn0.65,7.1,others
Ta0.745Zr0.255,7.1,others
Tb0.2Er0.8Ni2B2C1,7.1,heavy-Fermion
Sc0.8Th1.2C3,7.1,others
W7Re13B1,7.1,others
Pb0.95In0.05,7.091,others
Mg1Ni3C0.925,7.09,others
Pb0.96In0.04,7.075,others
La1.48Nd0.4Sr0.12Cu1O4,7.072857,cuprate
Mo0.96Co0.04Ga4,7.07,others
Ti0.615V0.385,7.07,others
Pb0.94In0.06,7.061,others
Tl0.04Pb0.96,7.06,others
Tl0.04Pb1,7.06,others
Li1.7B12,7.05,others
Nb1.01Se2,7.05,others
Pb0.28Sn0.72,7.05,others
Pr0.8Sr0.2Fe0.95Co0.05As1O1,7.05,iron-based
Re0.83Ti0.17,7.05,others
Re6Zr1,7.05,others
Mo6Fe0.05Sn1S8,7.05,others
Hf1V1.85Fe0.15,7.04,others
Pb0.913In0.087,7.035,others
Li2Pd2.4Ni0.6B1,7.033333,others
La2C2Br2,7.03,others
Sc0.5V0.5,7.03,others
Pb0.92In0.08,7.025,others
Pr1.85Ce0.15Cu0.993Ni0.007O4.065,7.02,cuprate
Y0.78Gd0.22Ni2B2C1,7.02,others
La2.96Ce0.04In1,7.01,heavy-Fermion
Ta0.3Mo1.7B5,7,others
Th0.2Nb1.8B5,7,others
Bi1Ba0.34K0.66O3,7,others
Ba0.833K0.167Fe2As2,7,iron-based
Pt3Au1Ba1Ge12,7,others
Ba6C60,7,others
Ba8Co4Ge42,7,others
Bi0.6Sn0.4,7,others
Bi2Ca2.5Eu0.5Cu2O8.31,7,cuprate
Bi2Sr2Cu1O6.175,7,cuprate
Hf0.25Nb0.75C1,7,others
K2.9H14C22,7,others
Er0.8Th1.2C3,7,others
C70,7,others
Pb1Ca1,7,others
Fe1Se0.93,7,iron-based
Ge0.3Cu4Sr2Ca3O11.05,7,cuprate
La1Ge5,7,heavy-Fermion
Ho1Fe0.01Ni1.99B2C1,7,heavy-Fermion
Y0.1La0.9Fe1As1O0.9F0.1,7,iron-based
La1.869Ba0.131Cu0.99Ni0.01O4,7,cuprate
La1Fe1As1O0.945F0.055,7,iron-based
La1Os1Ru3P12,7,heavy-Fermion
La1Os2Ru2P12,7,heavy-Fermion
Lu3Si5,7,heavy-Fermion
Mg1Ni3C0.977,7,others
Cs0.75Na2C60,7,others
Nb0.6Al0.08N0.79O0.21,7,others
Nb0.93Tc0.07,7,others
Ta0.66Rh0.33,7,others
Zr0.6Rh0.4,7,others
Ru1Sr1.94La0.06Eu1Cu2O8,7,cuprate
Fe1Sn0.05Se0.93,7,iron-based
Fe1Sn0.1Se0.93,7,iron-based
Pt0.4Sr1Fe1.6As2,7,iron-based
Sr2Cu1C0.96B0.04O5,7,cuprate
V0.65Al0.25Ge0.1,7,others
Zr0.05Ti0.45V0.5,7,others
Y1Fe4P12,7,iron-based
Y1Ru0.1Ni1.9B2C1,7,others
Y2C2Br1.25I0.75,7,others
Fe1Se0.99,6.99,iron-based
Ta0.3Nb0.7,6.985,others
Nd1Fe1P0.8As0.2O0.9F0.1,6.98,iron-based
Tl0.075Pb0.93,6.98,others
Tl0.075Pb1,6.98,others
Mg1Ni3B0.04C0.885,6.97,others
Th1Ni2B2C1,6.966667,heavy-Fermion
Ir4Ca3Sn13,6.95,others
Nb0.929Cr0.071,6.95,others
Pb0.8In0.2,6.95,others
Nb0.9V0.1,6.95,others
Sc4.5Dy0.5Ir4Si10,6.95,others
Er0.35Lu0.65Ru1B2,6.94,heavy-Fermion
Sc0.4V0.6,6.94,others
Ba0.1K0.9Fe2As2,6.93,iron-based
Mg1Fe0.001Ni2.999C1,6.93,others
La1Ru4P12,6.923333,heavy-Fermion
Pd0.9Cd0.1,6.92,others
La2.9745Gd0.0255In1,6.92,heavy-Fermion
Mg1Ru0.005Ni2.995C1,6.92,others
Mg1Ni3C1,6.91125,others
Ti0.5V0.5,6.15,others
Pb0.75Bi0.25,6.9,others
Rb3.1H14C22,6.9,others
Sm0.5Hg1Pb2In0.5,6.9,others
La5B2C6,6.9,heavy-Fermion
Mo0.39Ru0.61,6.9,others
Zr0.035Mo1.965B1C1,6.9,others
V3Ga0.78Sn0.22,6.9,others
V3Ga0.793Sb0.207,6.9,others
Mo0.05Ti0.45V0.5,6.9,others
Mo0.01Ti0.49V0.5,6.9,others
Y4Dy1Os4Ge10,6.9,heavy-Fermion
Gd0.1Er0.9Rh4B4,6.88,heavy-Fermion
Mg1Ni3B0.111C0.814,6.88,others
Mg1Fe0.3Ni2.7C1,6.88,others
Tl0.11Pb0.89,6.88,others
Tl0.12Pb1,6.88,others
Gd0.09Er0.91Rh4B4,6.87,heavy-Fermion
W0.4Re0.6,6.866667,others
V3Ge1,6.86,others
Pr0.8Sr0.2Fe0.9Co0.1As1O1,6.86,iron-based
Ti0.106V0.894,6.86,others
Ce1Bi1O0.1S2F0.9,6.855,others
Hf0.4Ta0.6,6.85,others
Ta0.37Nb0.63,6.84,others
Sc0.6V0.4,6.84,others
W0.2Mo1.8B1C1,6.82,others
Nb1Se2,6.814619,others
Er0.1Th1.9C3,6.8,others
Cu0.1Sn0.9,6.8,others
Fe1S0.12Te0.88,6.8,iron-based
Fe0.9Ga0.1Se0.85,6.8,iron-based
Fe0.75Ga0.25Se0.85,6.8,iron-based
Pb0.9In0.1,6.8,others
Ir0.2Zr0.75Ru0.05,6.8,others
La0.92Tm0.08Ru3Si2,6.8,heavy-Fermion
La0.95Ce0.05Ru4P12,6.8,heavy-Fermion
La1Fe1P1O0.94F0.06,6.8,iron-based
Mg1Ni2.97Cu0.03C1,6.8,others
Ta0.36Nb0.64,6.8,others
Nb0.25Mo0.1Ti0.65,6.8,others
Nb3Sn0.3Sb0.7,6.8,others
Nb3Ge0.44Sn0.56,6.8,others
Nb4Fe1Si1,6.8,others
Re0.67Zr0.33,6.8,others
Re0.92V0.08,6.8,others
Sc0.4Th1.6C3,6.8,others
Y0.9La0.1B6,6.8,others
Ag0.9Sn1.1S0.2Se1.8,6.79,others
Bi0.85Sb0.15,6.79,others
Ti0.588V0.392Fe0.02,6.79,others
Lu1Si3,6.78,heavy-Fermion
Mg1Ni3B0.072C0.853,6.76,others
Sc0.3V0.7,6.76,others
V0.75Si0.05Ge0.2,6.76,others
Ba4C60,6.75,others
Hg0.15Pb0.85,6.75,others
Lu2Ir3Si4.95Ge0.05,6.75,heavy-Fermion
Re0.75Nb0.25,6.75,others
Nb1.02Se2,6.75,others
W0.65Re0.35,6.75,others
Y1Co0.2Ni1.8B2C1,6.75,others
La1Mo6S8,6.73,others
Tl0.15Pb0.85,6.73,others
Tl0.17Pb1,6.73,others
P1,6.728571,others
La3S4,6.725714,others
Ag0.76Sn1.24Se2,6.72,others
Ho1Co0.01Ni1.995B2C1,6.72,heavy-Fermion
Mg1Ru0.01Ni2.99C1,6.715,others
Ag1B2,6.7,others
Au0.125Sb0.75Te0.125,6.7,others
Au0.25Sb0.75,6.7,others
Be3Ga1,6.7,others
W0.5Ti0.5C1,6.7,others
W1Cs0.19O3,6.7,others
Fe1Se0.05Te0.95,6.7,iron-based
Ir0.26Mo0.74,6.7,others
La1Pt1B1N1,6.7,heavy-Fermion
La1Si10,6.7,heavy-Fermion
Nb0.1Mo1.9B1C1,6.7,others
Mo6Se6Br2,6.7,others
Ta0.1Nb0.15Ti0.75,6.7,others
Yb0.8Pb0.2Mo6Se8,6.7,others
Sr1Al1Ge1,6.7,others
Sc0.2Th1.8C3,6.7,others
Ta3Sn1,6.6925,others
Mo6Se7.5Te0.5,6.69,others
Hf0.32Ta0.68,6.68,others
Nb1Se2.2,6.675,others
Si1,6.666666667,others
Nb0.95Cr0.05,6.66,others
Mo6Se7.7Te0.3,6.66,others
Fe0.99Ni0.01Se0.82,6.65,iron-based
Tm1Fe0.1Ni1.9B2C1,6.64,heavy-Fermion
Ca1Al1.1Si0.9,6.63,others
Li2.5B12,6.62,others
Cu0.14Sn0.86,6.62,others
Hf0.25Zr0.75,6.62,others
La0.05Ho0.95Ni2B2C1,6.62,heavy-Fermion
La1Ru2.94Co0.06Si2,6.62,heavy-Fermion
Hf0.52Ta0.48,6.61,others
Dy0.2Ho0.8Ni2B2C1,6.61,heavy-Fermion
Pb0.9Mg0.1,6.61,others
W0.5Re0.5,6.61,others
Au0.2Sb0.6Te0.2,6.6,others
B0.048C0.952,6.6,others
Sc0.1Nb1.9B5,6.6,others
Hf0.25Mo0.75C1,6.6,others
Pt3Ca1P1,6.6,others
Er1Co0.06Ni1.97B2C1,6.6,heavy-Fermion
Fe1S0.1Se0.1Te0.8,6.6,iron-based
V0.73Ge0.27,6.6,others
H0.94Pd1,6.6,others
Hf0.33Nb0.33V0.33,6.6,others
Hf1N0.989,6.6,others
Dy0.2Ho1.8Ni2B2C1,6.6,heavy-Fermion
Ta0.58Ir0.42,6.6,others
La1.85Sr0.15Cu0.976Zn0.024O4,6.6,cuprate
La1Fe0.875Co0.125As1O1,6.6,iron-based
Lu5Ir4Si8Ge2,6.6,heavy-Fermion
Mg1.2Ni3B0.16C1.44,6.6,others
Mo0.75Rh0.25,6.6,others
Nb0.9V0.1N1,6.6,others
Nb2Pd0.81S5,6.6,others
Au0.5Nb3Rh0.5,6.6,others
Nb5B0.8Si2.2,6.6,others
Re24Ti5,6.6,others
Re24Ti6,6.6,others
Sm0.7Pr0.3Ba2Cu3O6.75,6.6,cuprate
Th1Pt2B2C1,6.6,heavy-Fermion
Zr0.33Ti0.33V0.33,6.6,others
Pt0.3Li2Pd2.7B1,6.59,others
Sc1Lu4Ir4Si10,6.59,heavy-Fermion
Hf0.2Ta0.8,6.58,others
Li2Pd2.55Ni0.45B1,6.58,others
Ru0.02Ti0.588V0.392,6.58,others
Nb0.4B2,6.57,others
Pt2.4Sr1Pd0.6P1,6.57,others
Ta0.4Nb0.6,6.56,others
Zr0.75Rh0.25,6.556667,others
La0.06Ce0.94Ru2,6.55,heavy-Fermion
Ce0.9Pr0.1Ru2,6.55,heavy-Fermion
Cs0.3Mo1S2,6.55,others
Re2Fe3,6.55,others
Nb0.9Mo0.1,6.55,others
Ca1Al0.9Ga0.1Si1,6.54,others
Ta0.42Nb0.58,6.54,others
Y0.8Th0.2Ni1C2,6.535,others
Mo6Se7Cl1,6.52,others
Zr2Co0.95Cu0.05,6.52,others
La2.92Pr0.18Tl1,6.51,heavy-Fermion
Mg1Ru0.02Ni2.98C1,6.51,others
Ag0.8Ga0.2,6.5,others
Be0.7Al0.3,6.5,others
La4As3,6.5,heavy-Fermion
Tl0.14Bi0.86,6.5,others
Nb1C0.93,6.5,others
Pb0.9Cu0.1,6.5,others
Fe0.98Se0.25Te0.75,6.5,iron-based
Fe1.12Se0.03Te0.97,6.5,iron-based
V0.75Ge0.25,6.5,others
Ir0.25Pt0.75Nb2.25Mo0.75,6.5,others
La1.94Sr0.06Cu1O3.995,6.5,cuprate
La1Fe0.96Ni0.04As1O1,6.5,iron-based
La1Pt2.2B2C1,6.5,heavy-Fermion
Mg1Ni3C0.98,6.5,others
Re0.72Mo0.28,6.5,others
Au1Nb2.9V0.3,6.5,others
Nb3Si0.6Sn0.4,6.5,others
Nd1.85Ce0.15Cu0.985Fe0.015O4,6.5,cuprate
Ta0.826Sn0.174,6.5,others
Th1Ir1Si1,6.5,heavy-Fermion
Sc1Th1C3,6.5,others
Ta0.2W4.8B2Si1,6.5,others
Yb1C6,6.496667,others
Mo6Se6.5Cl1.5,6.49,others
Nb0.1Ti0.9N0.98,6.48,others
Pb1,6.4701,others
Ti0.7V0.3,6.463333,others
Ho0.2Lu0.8Ru1B2,6.46,heavy-Fermion
Al0.9Ge0.1,6.45,others
Au0.2Nb0.8,6.45,others
H0.965Pd1,6.45,others
Ir0.91Se2,6.45,others
La1Ru2.85Co0.15Si2,6.45,heavy-Fermion
Ho0.75Er0.25Rh4B4,6.44,heavy-Fermion
Mg1Ni3B0.154C0.771,6.44,others
Mg1Fe0.005Ni2.995C1,6.44,others
Ho0.813Er0.187Rh4B4,6.43,heavy-Fermion
Pb0.5In0.5,6.43,others
Tl0.27Pb0.73,6.43,others
Tl0.21Pb0.79,6.43,others
Tl0.27Pb1,6.43,others
Ba0.84K0.16Fe2As2,6.42,iron-based
Ho1Ru0.4Rh3.6B4,6.42,heavy-Fermion
Ho1Ru0.28Rh3.72B4,6.42,heavy-Fermion
Zr0.87Nb0.13,6.42,others
Ag0.81Sn1.19Se2,6.415,others
Ca2.5Rh4Co0.5Sn13,6.41,others
Ho1Ir2Rh2B4,6.41,heavy-Fermion
Tl0.45Bi0.46Mo6S7.5,6.41,others
Zr1V1.85Fe0.15,6.41,others
Nb1B2.5,6.4,others
Pr0.01Bi0.99Ba0.47K0.53O3,6.4,others
Ba0.818Na0.182Fe2As2,6.4,iron-based
Ba1Fe1.8Ni0.2As2,6.4,iron-based
Tl3Bi5,6.4,others
Ca1Rh2,6.4,others
Ca2Al2.73Si4.27,6.4,others
V0.79Ge0.21,6.4,others
V0.77Ge0.23,6.4,others
Zr0.5Nb3In0.5,6.4,others
Pt0.15Li2Pd2.85B1,6.4,others
Gd0.1Lu0.9Ru1B2,6.4,heavy-Fermion
Nb1Rh3B0.2,6.4,others
Nb5B0.4Si2.6,6.4,others
Nb5B1Si2,6.4,others
V0.736Al0.227Sb0.037,6.4,others
Hf0.261V2.739Ga1,6.4,others
V3Si0.2Sn0.8,6.4,others
Y2C2Br1.4I0.6,6.4,others
Zr0.99V0.01B2,6.4,others
Zr1Ru1B0.15P0.85,6.4,others
Mo6Se6Cl2,6.39,others
Lu5Ir4Si9Ge1,6.38,heavy-Fermion
Y1Mo6Se8,6.38,others
H0.963Pd1,6.377,others
Nd1.85Ce0.15Cu0.993Ni0.007O4,6.366667,cuprate
Re2Zr1,6.366667,others
La0.5Nd0.5Pt2.1B2.4C1.2,6.36,others
La1Sn3,6.358286,heavy-Fermion
Ho1Ru1Rh3B4,6.35,heavy-Fermion
Zr0.85Nb0.15,6.35,others
Pb0.9Ga0.1,6.33,others
Mo6Se7.5Cl0.5,6.33,others
Lu2Ir3Si4.98Ge0.02,6.32,heavy-Fermion
Os2Rb1O6,6.318,others
Nb1B2.2,6.305,others
Re1B2,6.3,others
Ba1Al1Ge1,6.3,others
Be2Ga1,6.3,others
V2.1Ga1,6.3,others
Ho1Th3.4Ru0.6B4,6.3,heavy-Fermion
La0.3Th0.7Ni1C2,6.3,others
Mg1Ni3C0.965,6.3,others
Mg1Ni2.94Cu0.06C1,6.3,others
Mo6S0.15Se7.85,6.3,others
Mo6Se7.9Te0.1,6.3,others
Yb0.9Pb0.1Mo6Se8,6.3,others
Os1Rb1O6,6.3,others
Ti0.91V0.09,6.3,others
Ti0.9V0.1,6.3,others
Y0.65Pr0.35Ba2Cu3O6.75,6.3,cuprate
Zr1P1.25Se0.75,6.3,others
Zr0.333Nb0.0735V0.5925,6.3,others
Er0.4Lu0.6Ru1B2,6.295,heavy-Fermion
Th0.25Zr0.75,6.29,others
Hf0.5Ta0.5,6.28,others
Pb0.4In0.6,6.28,others
Mo6Se7.6,6.28,others
Pb0.9Sb0.1,6.28,others
Mo6Se8,6.277143,others
La0.87Th0.13Sn3,6.26,heavy-Fermion
Re3V1,6.26,others
Ti0.75Sb0.25,6.26,others
Pt3.25Au0.75Ba1Ge12,6.25,others
Mg1Fe0.01Ni2.99C1,6.25,others
Rb0.3Mo1S2,6.25,others
Pt0.5Nb3Rh0.5,6.25,others
Re0.6Mo0.4,6.245,others
Ir0.94Se2,6.24,others
Zr1P1.35Se0.65,6.24,others
Mo3Se4,6.233333,others
Tl0.15Bi0.85,6.23,others
Mo6Se6.5Te1.5,6.23,others
Zr0.925Rh0.075,6.225,others
La1Ru2.97Fe0.03Si2,6.22,heavy-Fermion
Sr1Fe1.68Co0.2Zn0.12As2,6.22,iron-based
Dy0.8Ho0.2Ni2B2C1,6.215,heavy-Fermion
Mo5.8Ru0.2Se8,6.21,others
Nb3.28Al0.72,6.2,others
Pr0.18Ba0.82Fe2As2,6.2,iron-based
Ba1Fe1.926Co0.074As2,6.2,iron-based
Ca2Al3Si4,6.2,others
Sc1Ce1Ru2,6.2,heavy-Fermion
Er1Co0.065Ni1.9675B2C1,6.2,heavy-Fermion
In0.9Ge0.1,6.2,others
Hf1Re6,6.2,others
Ir0.2Zr0.75Si0.05,6.2,others
K0.28Mo1S2,6.2,others
La3Pr0.3In1,6.2,heavy-Fermion
La3Sn1,6.2,heavy-Fermion
Lu2Ir3Si4.75Ge0.25,6.2,heavy-Fermion
Nb0.15Mo1.85B1C1,6.2,others
Zr0.065Mo1.935B1C1,6.2,others
Nb0.75Mo5.25Se8,6.2,others
Ta0.25Nb0.25V0.25Sn0.25,6.2,others
Re0.55Nb0.45,6.2,others
Ta0.53Nb0.47,6.2,others
Ta1Nb1V1Sn1,6.2,others
Pr1Pt1.5Au0.6B2.4C1.2,6.2,heavy-Fermion
Re0.8V0.2,6.2,others
Sr1Rh2,6.2,others
Mo0.1Ti0.4V0.5,6.2,others
Y1Fe0.14Ni1.86B2C1,6.2,others
Ba0.8Rb0.2Ti2Sb2O1,6.19,others
Ba1Fe1.856Ni0.144As2,6.185,iron-based
Re0.55Mo0.45,6.185,others
Ca1Al1Si1,6.183529,others
Ga0.8Sb0.2,6.18,others
Mo0.48Ru0.32P0.2,6.18,others
Ag0.85Sn1.15Se2,6.175,others
La0.03Ce0.97Ru2,6.17,heavy-Fermion
Gd0.19Lu0.81Ni2B2C1,6.155,heavy-Fermion
Ho0.866Er0.134Rh4B4,6.15,heavy-Fermion
Zr1Ru0.95Rh0.05P1,6.15,others
La0.12Ce0.88Ru2,6.14,heavy-Fermion
Ho1Ru0.6Rh3.4B4,6.14,heavy-Fermion
Pr1Fe0.95Co0.05As1O1,6.14,iron-based
Ir1Pt1Nb3Mo3,6.13,others
Nb0.965O0.035,6.13,others
Zr0.333Nb0.048V0.618,6.13,others
Nb2Pd1S5,6.125,others
Th1Ir2,6.11,heavy-Fermion
Mg0.33B0.67,6.1,others
Nb0.3B2,6.1,others
Ba0.88K0.12Ti2Sb2O1,6.1,others
Ir4Ba3Ge16,6.1,others
Hf0.7Nb0.3C1,6.1,others
La0.84Tm0.16Ru3Si2,6.1,heavy-Fermion
Lu1Re1B1C1,6.1,heavy-Fermion
Mg1Ru0.033Ni2.967C1,6.1,others
Re0.135Mo0.865,6.1,others
V0.741Al0.146Sb0.113,6.1,others
V3Si0.2Ge0.8,6.1,others
Ta0.5Nb0.5,6.09,others
Sc0.07V0.93,6.09,others
Ti1V1,6.09,others
Zr1B12,6.09,others
Nb0.82Ge0.18,6.085,others
Ti0.576V0.384Fe0.04,6.08,others
Zr2Co0.9Cu0.1,6.07,others
Sc0.5Lu4.5Ir4Si10,6.06,heavy-Fermion
Sc0.25Lu4.75Ir4Si10,6.06,heavy-Fermion
Fe1.12Se0.11Te0.83,6.05,iron-based
Hf0.65Nb0.35N1,6.05,others
La1Ru2.76Co0.24Si2,6.04,heavy-Fermion
La2.9602Gd0.0398In1,6.04,heavy-Fermion
Nb0.8Mn0.04Ga0.16,6.03,others
Mo2C1,6.021667,others
Sr2Rb1Li0.34Nb3O10,6.02,others
La1Fe0.985Zn0.015As1O0.85,6.01,iron-based
Y0.9Th0.1Ni1C2,6.005,others
Au0.1Sb0.8Te0.1,6,others
Nb1.8Ru0.2B5,6,others
Ba1Rh2,6,others
Ba6.63Si46,6,others
Ba8Si40Ge6,6,others
Ba8Al5Si41,6,others
Be6Ga1,6,others
Tl0.4Bi0.6,6,others
Nb0.3C0.7,6,others
Yb3.5C60,6,others
Pt3.28Ca10Fe9.72As18,6,iron-based
Zr2Co0.85Ni0.15,6,others
W1Cs0.23O3,6,others
Bi2Cu0.14Te3,6,others
La1Cu1,6,heavy-Fermion
D0.9Pd1,6,others
Fe1.02Se1,6,iron-based
Fe1.035Se0.22Te0.78,6,iron-based
Fe1Se0.13Te0.87,6,iron-based