Formula,Tc,Materials_family
Ho1Ba2Cu2.94O6.94,77,cuprate
La1.1Ba1.5Ca0.4Cu3O7.11,77,cuprate
La1.7Nd0.3Ba2Ca0.6Cu4.6O7.135,77,cuprate
La2.5Y0.5Ca1Ba3Cu6.86Fe0.14O16.578,77,cuprate
Lu0.85Pr0.15Ba1.7Sr0.3Cu3O6.91,77,cuprate
Nd0.8Ca0.2Ba1Sr1Cu3O6.78,77,cuprate
Pb0.8Sr1Ba1.2Y0.7Ca0.3Cu3O8.35,77,cuprate
Pb2Sr2Y0.61Ca0.39Cu3O8,77,cuprate
Sr2Ca1Cu2O5.5,77,cuprate
Tl0.67Cr0.33Sr4Cu2C1O10,77,cuprate
Y0.5Eu0.5Ba2Cu4O8,77,cuprate
Y0.95Pr0.05Ba2Cu4O8,77,cuprate
Y1Ba1Sr1Cu2.975Sn0.025O6.92,77,cuprate
Y1Ba2Cu2.94Ti0.06O6.91,77,cuprate
Y1Ba2Cu2.97Zn0.03O6.85,77,cuprate
Y1Ba2Cu4Li0.016O8,77,cuprate
Y1Ba2Cu2.79Ga0.21O7,76.91,cuprate
Ca0.3Ba1.45La1.25Cu3O7.172,76.9,cuprate
Y0.9Ca0.1Ba2Cu2.75Co0.25O7.03,76.9,cuprate
Ho0.99Ca0.01Ba2Cu4O8,76.8,cuprate
Nd1.15Ba1.85Cu3O6.96,76.8,cuprate
Y0.8Ca0.2Ba2Cu3O6.7,76.7,cuprate
Y1Ba2Cu3H1.15O6.91,76.7,cuprate
Bi1.7Pb0.3Sr2Ca0.9Nd0.1Cu2O8.27,76.67,cuprate
Y1Ba2Cu2.94Fe0.06O6.954,76.6,cuprate
Bi2Sr1.1Ca1.9Cu2O8.22,76.5,cuprate
Bi2Sr1.2Ca1.8Cu2O8.199,76.5,cuprate
Bi2Sr1.3Ca1.7Cu2O8.19,76.5,cuprate
Bi2Sr2Ca0.9Y0.1Cu2O8,76.5,cuprate
Er0.8Ca0.2Ba2Cu3O6.91,76.5,cuprate
Gd1Ba1Sr1Cu3O6.9371,76.5,cuprate
Bi2Sr1Ca2Cu2O8.229,76.4,cuprate
Er0.8Pr0.2Ba2Cu3O7,76.4,cuprate
Pb2Sr2Ho0.05Ca0.5Cu2.994Al0.006O8,76.4,cuprate
Y0.75Ca0.05Pr0.2Ba2Cu3O6.95,76.4,cuprate
Y1Ba2Cu2.95Fe0.05O6.84,76.4,cuprate
La1Ba1Ca1Cu3O6.98,76.35,cuprate
Y1Ba1Sr1Cu2.975Sn0.025O6.91,76.3,cuprate
Ho1Ba2Cu4O8,76.2,cuprate
Y0.75Pr0.15Ca0.1Ba2Cu4O8,76.2,cuprate
Al1Sr2Ca2Cu3O10.1,76,cuprate
Ba1.6Sr0.4Yb0.6Ca0.4Cu3O6.61,76,cuprate
Ba1.6Sr0.4Yb0.85Ca0.15Cu3O6.83,76,cuprate
Bi1Pb1Sr2Y0.65Ca0.35Cu2O8,76,cuprate
Bi2Sr2Ca0.6Y0.4Cu2O8.36,76,cuprate
Ca0.3La0.55Ba1.45Cu3O7.16,76,cuprate
Ca0.4La1.25Ba1.35Cu3O7.135,76,cuprate
Ca1Ba1La1Cu3O6.85,76,cuprate
Er1Ba2Cu2.94Zn0.03Fe0.03O6.94,76,cuprate
Fe0.5Ba2Ho1Cu2.5O7.49,76,cuprate
Gd0.55Ca0.35Hf0.15Ba2Cu3O7.06,76,cuprate
Hg0.4Pr1.1Sr2Ca0.5Cu2O7.9,76,cuprate
Hg1Tl1Ba2Ca2Cu3O10,76,cuprate
La1.1Ba1.5Ca0.4Cu3O7.123,76,cuprate
La1.55Er0.45Ba2Ca0.9Cu4.9O11.664,76,cuprate
La1.5Nd0.5Ca1Ba2Cu4.95Mo0.05O11.345,76,cuprate
La1.5Yb0.5Ba1.5Ca1Cu5O11.785,76,cuprate
La1.6Er0.4Ba2Ca0.8Cu4.8O11.424,76,cuprate
La1.6Gd0.4Ba2Ca0.8Cu4.8O11.401,76,cuprate
La1.7Yb0.4Ba1.7Ca0.8Cu5O11.795,76,cuprate
La1Ba1.5Ca0.5Cu3O6.85,76,cuprate
La1Ba1.5Ca0.5Cu3O7.079,76,cuprate
La1Ba2Cu3O6.89,76,cuprate
La2Ca2Ba2Cu3O13.712,76,cuprate
La3Ca0.8Cd0.2Ba3Cu7O16.536,76,cuprate
Nd1.1Ba1.9Cu3O6.935,76,cuprate
Pb2Sr2Y0.53Ca0.47Cu3O8,76,cuprate
Tl0.5Pb0.5Sr4Cu2C0.9N0.1O7,76,cuprate
Tm1.8Pr0.2Ba4Cu7O14.725,76,cuprate
Y1Ba1.76Sr0.24Cu4O8,76,cuprate
Y1Ba2Cu2.85Fe0.15O7.02,76,cuprate
Yb0.8Pr0.2Ba1.7Sr0.3Cu3O6.92,76,cuprate
Bi2Sr2Ca0.9Pr0.1Cu2O8.234,75.8,cuprate
Y1Ba2Cu3O6.765,75.8,cuprate
Y1Ba1Sr1Cu3O6.88,75.6,cuprate
Y1Ba2Cu2.82Fe0.18O6.95,75.6,cuprate
Pb2Sr2Ho0.5Ca0.5Cu3O8,75.566667,cuprate
Bi2Sr2Ca0.9Ce0.1Cu2O8,75.455,cuprate
La1.25Ba1.45Ca0.3Cu3O7.15,75.2,cuprate
La1.2Ba1.5Ca0.3Cu3O7.06,75.2,cuprate
Gd0.75Ca0.1Mo0.15Ba2Cu3O6.671,75.1,cuprate
Sr2Nd0.4Ca0.6Cu2F1O5,75.1,cuprate
Y0.74Ca0.16Sr1.1Ba1Cu2.78S0.22O7,75.1,cuprate
Y0.925Ca0.075Ba2Cu3O6.68,75.1,cuprate
Y0.95Ca0.05Ba2Cu2.75Co0.25O7.06,75.1,cuprate
B1Sr2Ca2Cu3O9,75,cuprate
Ba1.6Sr0.4Yb0.6Ca0.4Cu3O6.36,75,cuprate
Bi0.2Pb0.4La1.2Sr1.3Cu1.9O5.78,75,cuprate
Bi0.5Pb0.25S0.25Sr2Ca0.7Nd0.3Cu2O6.97,75,cuprate
Bi0.8Pb0.1S0.1Sr2Ca0.7Nd0.3Cu2O6.95,75,cuprate
Bi1Pb1Sr2Y0.3Ca0.7Cu2O8,75,cuprate
Bi2Sr2Ca0.8Y0.2Cu2I1O8,75,cuprate
Ca5.9Sr3.5Bi0.3Y0.1Pb0.1Al0.1Cu15.1O29,75,cuprate
Cu3P0.5Sr2Ca1.8Y0.2O9.45,75,cuprate
Er1Ba2Cu3O6.6,75,cuprate
Eu1Ba1Sr0.7Ca0.3Cu3O6.95,75,cuprate
Eu1Ba1Sr0.8Ca0.2Cu3O6.95,75,cuprate
Eu2Ba4Cu7O14.671,75,cuprate
Fe0.5Ba2Dy1Cu2.5O7.52,75,cuprate
Gd1Ba2Cu2.91Fe0.09O6.94,75,cuprate
Hg0.9Mo0.1Ba2Cu1O4.2,75,cuprate
Hg1Ba2Cu0.97Zn0.03O4.063,75,cuprate
La1Ba1.1Ca0.9Cu3O7.02,75,cuprate
La1Ba1Ca1Cu3O6.99,75,cuprate
Lu0.8Pr0.2Ba1.7Sr0.3Cu3O6.93,75,cuprate
Nd0.7Ca0.3Ba0.6La0.4Cu3O6.79,75,cuprate
Nd1Ba1.4Sr0.6Cu3O6.94,75,cuprate
Pb0.8Sr0.8Ba1.2Y0.7Ca0.3Cu3.2O8.3,75,cuprate
Sr1.84Ba0.16Cu1O3.4,75,cuprate
Tl1Sr2Ca1Cu2O6.68,75,cuprate
V0.5Sr2.3Ca4.7Cu6.5O15.5,75,cuprate
V0.5Sr2.4Ca3.6Cu5.5O13.55,75,cuprate
Y0.25Eu0.75Ba2Cu4O8,75,cuprate
Y0.85Pr0.15Ba2Cu3O6.84,75,cuprate
Y0.868Ca0.132Ba2Cu3O6.928,75,cuprate
Y0.95Ga0.05Ba2Cu4O8,75,cuprate
Y1.2Ba0.8Cu1O4,75,cuprate
Y1Ba2Cu2.7Ga0.3O6.93,75,cuprate
Y1Ba2Cu2.85Ni0.15O6.84,75,cuprate
Y1Ba2Cu2.94Zn0.06O6.93,75,cuprate
Y1Ba2Cu2.9Al0.1O7,75,cuprate
Y1Ba2Cu3H0.1O6.795,75,cuprate
Y1Ba2Cu2.9Fe0.1O6.9,74.9,cuprate
Y1Ba2Cu2.91Zn0.09O6.9,74.6,cuprate
Hg1.4Tl0.6Ba2Y0.7Ca0.3Cu2O7.81,74.5,cuprate
Y1Ba2Cu3.92Ga0.08O8,74.5,cuprate
Dy1Ba2Cu4O8,74.466667,cuprate
Bi8Sr5Ca7Cu9O34.94,74.4,cuprate
Gd0.9Pr0.1Ba2Cu3O6.95,74.3,cuprate
La1.25Ca0.35Ba1.4Cu3O7.108,74.3,cuprate
Y1Ba1.98La0.02Cu4O8,74.3,cuprate
Bi2Sr2Ca1Cu1.99Fe0.01O8,74.1,cuprate
Y1Ba2Cu2.91Ti0.09O6.9,74.1,cuprate
Ba1.6Sr0.4Yb0.75Ca0.25Cu3O6.68,74,cuprate
Bi0.33Hg0.67Sr2Y1Cu2O7,74,cuprate
Bi2Sr2Ca0.65Y0.35Cu2O8.3,74,cuprate
Bi2Sr2Ca1Cu1.952Ni0.048O8,74,cuprate
Bi2Sr2Ca1Cu2O8.197,74,cuprate
Hg0.8Mo0.2Ba2Cu1O4.4,74,cuprate
La1.05Ba1.5Ca0.45Cu3O6.81,74,cuprate
La1.5Ba1Ca0.5Cu3O7.195,74,cuprate
La1Ba1.2Ca0.8Cu3O6.95,74,cuprate
La1Ba1.4Ca0.6Cu3O6.9,74,cuprate
La1Ba2Cu3O6.95,74,cuprate
La2.25Ca1.5Ba2.25Cu6O13.93,74,cuprate
La2.7Ca0.6Ba2.7Cu6O14.186,74,cuprate
La2.7Gd0.4Ca0.8Ba3.1Cu7O16.537,74,cuprate
La5.8Y0.4Ca0.8Ba3.1Cu7O16.548,74,cuprate
Nd1Ba1Sr1Cu3O6.94,74,cuprate
Pb0.8Sr1Ba1.2Y0.7Ca0.3Cu3O8.28,74,cuprate
Pb2Sr2Eu0.75Ca0.25Cu3O8.1,74,cuprate
Tl1Sr2Ca0.4Pr0.6Cu2O7,74,cuprate
Y0.8Pr0.2Ba2Cu4O7.95,74,cuprate
Y0.9Ca0.1Ba2Cu2.9Ni0.1O6.86,74,cuprate
Y0.9Ga0.1Ba2Cu4O8,74,cuprate
Y1Ba0.75Sr1.25Cu3O6.94,74,cuprate
Y1Ba2Cu2.82Fe0.18O7,74,cuprate
Y1Ba2Cu3O6.883,74,cuprate
Bi2Sr2Ca1Cu2O8.242,73.9,cuprate
Y1Ba2Cu2.95Zn0.05O6.94,73.9,cuprate
Ca0.7Nd0.3Ba1La1Cu3O7.04,73.8,cuprate
Ca0.8Nd0.2Ba1La1Cu3O6.99,73.8,cuprate
Ca0.9Nd0.1Ba1La1Cu3O6.87,73.8,cuprate
Y1Ba1Sr1Cu2.95Sn0.05O6.96,73.8,cuprate
Bi2Sr1.8Ca1.2Cu2O8.211,73.7,cuprate
Er0.75Ca0.1Hf0.15Ba2Cu3O6.796,73.6,cuprate
Bi1.9Pb0.1Sr2Ca1Cu2O8.2,73.5,cuprate
Bi8Sr8Ca4Cu9O34.25,73.5,cuprate
Gd1Sr0.1Ba1.9Cu4O8,73.5,cuprate
Hg1Ba2Cu1O4.05,73.5,cuprate
Lu0.7Pr0.3Ba2Cu3O7,73.5,cuprate
Y1Ba2Cu3.88Ga0.12O8,73.5,cuprate
Yb0.7Pr0.3Ba2Cu3O6.97,73.5,cuprate
Y0.7Pr0.2Ca0.1Ba2Cu4O8,73.4,cuprate
Y1Ba1.76La0.24Cu3O7.024,73.4,cuprate
Bi1.6Pb0.4Sr2Ca2Cu3O10.24,73.3,cuprate
Y1Ba2Cu3.98Co0.02O8,73.3,cuprate
Y1Ba2Cu3.99Zn0.01O8,73.3,cuprate
Gd1Sr1.8Ba0.2Cu4O8,73.1,cuprate
Sr2Nd0.3Ca0.7Cu2F1O5,73.1,cuprate
Ba1.6Sr0.4Yb0.65Ca0.35Cu3O6.45,73,cuprate
Bi1.7Pb0.3Sr2Ca0.7Y0.3Cu2O8.26,73,cuprate
Bi2.1Sr1.8Ca1Cu1.96Co0.04O8,73,cuprate
Bi2Sr1.5Ca1.5Cu2O8.22,73,cuprate
Bi2Sr2Ca0.8Gd0.2Cu2O8,73,cuprate
Bi2Sr2Ca1Cu2O8.212,73,cuprate
Ca2Sr2Cu3Ga1O9,73,cuprate
Er1Ba2Cu2.94Co0.06O6.8,73,cuprate
Eu1Ba1.9Pr0.1Cu3O6.75,73,cuprate
Gd0.45Ca0.4Mo0.15Ba2Cu3O6.537,73,cuprate
Ge0.5Cu3Sr2Ca1.7Y0.3O9.3,73,cuprate
Hg0.9Ba2Cu1O4,73,cuprate
Hg1Ba2Cu1O4.045,73,cuprate
Hg1Ba2Cu1O4.06,73,cuprate
La0.8Ca0.2Ba1.5Sr0.5Cu3O6.794,73,cuprate
La0.9Ba1.5Ca0.6Cu3O6.74,73,cuprate
La1.3Yb0.6Ba1.3Ca1.2Cu5O11.74,73,cuprate
La1Ba1.3Ca0.7Cu3O6.92,73,cuprate
Nd1Ba1.8Ca0.2Cu3O6.866,73,cuprate
Pb2Sr2Eu0.7Ca0.3Cu3O8.1,73,cuprate
Pb2Sr2Eu0.8Ca0.2Cu3O8.1,73,cuprate
Pb2Sr2Y0.5Ca0.5Cu3F1.0031O7.2608,73,cuprate
Tl0.5Pb0.5Sr2Ca1Cu2.95Zn0.05O7,73,cuprate
V0.5Sr2.6Ca5.4Cu7.5O17.3,73,cuprate
Y0.7Ca0.3Ba1.3La0.7Cu3O7.16,73,cuprate
Y0.8Ca0.2Ba1.5La0.5Cu3O7.13,73,cuprate
Y0.9Ca0.1Ba2Cu3O6.7,73,cuprate
Y1Ba2Cu2.7Al0.3O6.99,73,cuprate
Y1Ba2Cu2.7Ni0.3O6.88,73,cuprate
Y1Ba2Cu2.85Ni0.15O6.9,73,cuprate
Y1Ba2Cu2.9Co0.1O6.82,73,cuprate
Y1Ba2Cu3H0.1O6.765,73,cuprate
Y1Sr2Cu2.85Re0.15O7.1,73,cuprate
Ca0.4Ba1.25La1.35Cu3O7.19,72.9,cuprate
Y0.6Ca0.2Pr0.2Ba2Cu3O6.95,72.9,cuprate
Y1Ba1.5Sr0.5Cu3O6.85,72.9,cuprate
Y1Ba2Cu2.975Zn0.025O6.85,72.85,cuprate
Eu1Ba2Cu2.9Co0.1O6.97,72.7,cuprate
Gd1Ba2Cu4O8,72.666667,cuprate
Y0.8Pr0.2Ba2Cu3O6.98,72.6,cuprate
Hg0.5Fe0.5Sr2Y0.3Ca0.7Cu2O6.65,72.5,cuprate
La1Ba1.75Sr0.25Cu3O6.946,72.5,cuprate
Y0.95Ca0.05Ba2Cu2.95Co0.05O6.84,72.5,cuprate
Y1Ba2Cu2.9Ni0.1O6.93,72.5,cuprate
Y1Ba2Cu3H0.2O6.795,72.5,cuprate
Y0.8Pr0.2Ba2Cu3O6.96,72.35,cuprate
Y0.85Pr0.15Ba2Cu4O8,72.3,cuprate
Er0.55Ca0.3Hf0.15Ba2Cu3O7.05,72.2,cuprate
Y1La1Ba4Cu6O13.95,72.2,cuprate
Y0.8Ca0.2Ba2Cu3O6.6,72.1,cuprate
Y0.9Pr0.1Ba2Cu4O8,72.025,cuprate
Al1Sr2Ca2Cu3O9.7,72,cuprate
Ca5.84Sr4.02Bi0.14Cu15.84O29,72,cuprate
Er1Ba2Cu2.82Fe0.18O6.97,72,cuprate
Fe0.5Ba2Er1Cu2.5O7.46,72,cuprate
Fe0.5Ba2Gd1Cu2.5O7.45,72,cuprate
Fe0.5Ba2Yb1Cu2.5O7.45,72,cuprate
Hg1Ba2Cu1O4.02,72,cuprate
La1.1Ba1.5Ca0.4Cu3O6.82,72,cuprate
La1.65Ba1.5Ca0.35Cu3O6.79,72,cuprate
La1Ba1.5Ca0.5Cu3O7.112,72,cuprate
La2.3Gd0.7Ca1Ba2.8Sr0.2Cu6.86In0.14O16.536,72,cuprate
Nd0.8Ca0.2Ba0.6La0.4Cu3O6.72,72,cuprate
Nd0.9Ba1.7Ca0.4Cu3O6.801,72,cuprate
Pb0.5Sr2Ca0.5Tm0.5Cu2.5O7,72,cuprate
Pb2Sr2Y0.5Ca0.5Cu3F0.5612O7.649,72,cuprate
Sr2Ca3Cu4F2O8.8,72,cuprate
Y0.9Ca0.1Ba1.6La0.4Cu3O7.09,72,cuprate
Y1Ba2Cu2.955Fe0.045O6.89,72,cuprate
Y1Ba2Cu3Cl1O6,72,cuprate
Y1Ba2Cu4Li0.031O8,72,cuprate
Gd0.45Ca0.4Hf0.15Ba2Cu3O7.08,71.9,cuprate
Lu1.8Ba0.2Cu1O4,71.9,cuprate
Bi2Sr1.9Ca1.1Cu2O8.181,71.8,cuprate
Y1Ba2Cu2.76Ga0.24O7,71.79,cuprate
Bi2Sr2Ca1Cu2I0.25O8.21,71.6,cuprate
Y0.8Ca0.2Ba2Cu3O7,71.6,cuprate
Y0.8Pr0.2Ba2Cu3O6.82,71.6,cuprate
Bi1.7Pb0.3Sr2Ca0.7Y0.3Cu2O8.25,71.5,cuprate
Bi2Sr2Ca1Cu1.98Fe0.02O8,71.5,cuprate
La3Ca0.7Cd0.3Ba3Cu7O16.459,71.5,cuprate
Y1Ba2Cu2.76Ni0.24O7,71.5,cuprate
Y1Ba2Cu3.84Ga0.16O8,71.25,cuprate
Y1Ba2Cu3O6.773,71.2,cuprate
Cu3P0.5Sr2Ca1.8Y0.2O9.35,71,cuprate
Cu4.5Sr2Ca3Cr0.5O11.45,71,cuprate
Gd0.96Ca0.04Ba1Sr1Cu3O6.9138,71,cuprate
La0.75Sm0.25Ba1Ca1Cu3O7,71,cuprate
La0.85Ca0.15Ba1.5Sr0.5Cu3O6.819,71,cuprate
La1.65Er0.35Ba2Ca0.7Cu4.7O11.166,71,cuprate
La1Ba0.9Ca1.1Cu3O7.05,71,cuprate
Nd0.9Ca0.1Ba1Sr1Cu3O6.85,71,cuprate
Pb1Sr2Y0.62Ca0.38Cu3O8,71,cuprate
Pb2Sr2Eu0.65Ca0.35Cu3O8.1,71,cuprate
Pb2Sr2Eu0.85Ca0.15Cu3O8.1,71,cuprate
Tl0.5Pb0.5Sr2Ca1Cu2.98Zn0.02O7,71,cuprate
Tl0.5Pb0.5Sr4Cu2C1O10,71,cuprate
Tl0.5Pb0.5Sr4Cu2C1O7,71,cuprate
Y0.95Ca0.05Ba2Cu3O6.7,71,cuprate
Y1.01Ba2.01Cu2.906Ni0.094O6.7,71,cuprate
Y1Ba2Cu2.85Co0.15O6.92,71,cuprate
Y1Ba2Cu2.94Zn0.06O6.96,71,cuprate
Y1Ba2Cu2.9Fe0.1O6.929,71,cuprate
Y1Ba2Cu3F0.1O6.7,71,cuprate
Y1Sr2Cu2.8Mo0.2O7.1,71,cuprate
Yb0.75Pr0.25Ba1.7Sr0.3Cu3O6.92,71,cuprate
Sr2Nd0.5Ca0.5Cu2F1O5,70.9,cuprate
Nd0.8Ca0.1Pr0.1Ba2Cu3O7.02,70.8,cuprate
Y0.975Ca0.025Ba2Cu3O6.72,70.8,cuprate
Bi1.4Pb0.6Sr2Ca1.4Ga0.6Cu3O7,70.6,cuprate
Gd0.99Ca0.01Ba1Sr1Cu3O6.9198,70.5,cuprate
Y1Ba2Cu3.98Fe0.02O8,70.5,cuprate
Y1Ba2Cu3.97Ni0.03O8,70.4,cuprate
Y1La1.2Ba3.8Cu6O14.07,70.4,cuprate
Hg0.92Ba2.05Cu1.03O4.087,70.3,cuprate
Y1Ba2Cu3.8Ga0.2O8,70.25,cuprate
Y1Ba2Cu3.987Fe0.013O8,70.15,cuprate
Y1Ba2Cu2.955Zn0.045O7,70.1,cuprate
Bi2Sr2Ca0.8Pr0.2Cu2O8.282,70,cuprate
Bi2Sr2Ca1.2Cu3.22O8,70,cuprate
Bi2Sr2Ca1Cu2O8.199,70,cuprate
Bi2Sr2Ca1Cu2O8.2135,70,cuprate
Bi2Sr2Ca1Cu2O8.214,70,cuprate
Bi2Sr2Ca1Cu2O8.218,70,cuprate
Bi2Sr2Ca1Cu2O8.3,70,cuprate
Cu3P0.5Sr2Ca1.8Y0.2O9.25,70,cuprate
Dy1Ba2Cu2.96Zn0.04O6.9,70,cuprate
Dy1Ba2Cu2.9Fe0.1O6.84,70,cuprate
Ga1Sr2Ca2Cu3O9,70,cuprate
Hg1Ba2Cu1O4.049,70,cuprate
La1.1Ba1.5Ca0.4Cu3O6.97,70,cuprate
La1.1Ba1.5Ca0.4Cu3O7.17,70,cuprate
La1.1Yb0.7Ba1.1Ca1.4Cu5O11.692,70,cuprate
La1.25Ba1.5Ca0.25Cu3O6.74,70,cuprate
La1.5Nd0.5Ca1Ba2Cu4.75Mo0.25O11.143,70,cuprate
La1.5Nd0.5Ca1Ba2Cu4.85Mo0.15O11.322,70,cuprate
La1.7Er0.3Ba2Ca0.6Cu4.6O10.92,70,cuprate
La2.5Y0.5Ca1Ba3Cu6.72Fe0.28O16.592,70,cuprate
Nd1.1Ba1.7Sr0.2Cu3O6.858,70,cuprate
Pb0.5Sr2Ca0.5Er0.5Cu2.5O7,70,cuprate
Sm1Ba2Cu2.96Zn0.04O6.83,70,cuprate
Sr2Cu1O3.1,70,cuprate
Sr3Cu2Cl1O5,70,cuprate
Tl0.5Pb0.5Sr4Cu2C0.5N0.5O7,70,cuprate
Tl0.5Pb0.5Sr4Cu2C0.7N0.3O7,70,cuprate
Tl1Sr2Ca0.6Pr0.4Cu2O7,70,cuprate
Tl2Ba2Cu1O5.929,70,cuprate
Tm1Ba1Sr1Cu3O6.94,70,cuprate
Y0.5Ca0.5Ba1.1La0.9Cu3O7.15,70,cuprate
Y0.7Ca0.3Ba2Cu2.7Co0.3O6.84,70,cuprate
Y0.8Pr0.2Ba2Cu3O6.965,70,cuprate
Y1Ba1.8Cu2.8Co0.2O7.05,70,cuprate
Y1Ba1.95Cu2.95Co0.05O6.9,70,cuprate
Y1Ba2Cu2.9Ni0.1O6.95,70,cuprate
Y1Ba2Cu3.985Zn0.015O7.95,70,cuprate
Y2Ba4Cu7O14.78,70,cuprate
Bi1.7Pb0.3Sr2Ca0.8Y0.2Cu2O8,69.7,cuprate
Sr2Y1Cu3O7.65,69.5,cuprate
Y0.9Ca0.1Ba2Cu2.9Co0.1O6.84,69.5,cuprate
Y1Ba2Cu2.9Ni0.1O6.88,69.5,cuprate
Bi1.4Pb0.6Sr2Ca1.6Ga0.4Cu3O7,69.4,cuprate
Ca0.3Ba1.45La1.25Cu3O7.12,69.3,cuprate
Sm1Ba2Cu4O8,69.3,cuprate
Y1Ba2Cu2.835Fe0.165O6.98,69.3,cuprate
Sr2Ca1Cu2F1O5,69.1,cuprate
Y1Ba1Sr1Cu2.9Sn0.1O7,69.1,cuprate
Y1Ba1.6La0.4Cu3O7.14,69.075,cuprate
Al1Sr2Ca2Cu3O9.5,69,cuprate
Cu2Re0.15Sr2Y1O7.3,69,cuprate
Er1Ba2Cu2.94Zn0.06O6.92,69,cuprate
Hg1Ba2Cu0.97Zn0.03O4.052,69,cuprate
La1Ca1Ba1Cu3O7,69,cuprate
Nd1.3Ba1.7Cu3O7,69,cuprate
Nd1Ba2Cu3S1O6,69,cuprate
Pb2Sr2Eu0.9Ca0.1Cu3O8.1,69,cuprate
Sr2Y1Cu3O7.9,69,cuprate
Y0.8Ca0.2Ba2Cu2.8Co0.2O6.83,69,cuprate
Y0.8Ga0.2Ba2Cu4O8,69,cuprate
Y1Ba2Cu2.73Fe0.27O7.1,69,cuprate
Y1Ba2Cu2.7Fe0.3O7.1,69,cuprate
Y1Ba2Cu3O6.702,69,cuprate
Y1Ba2Cu3.98Ni0.02O8,68.8125,cuprate
Ho1Sr0.2Ba1.8Cu4O8,68.8,cuprate
Y0.95Ca0.05Ba1.9La0.1Cu4O7.9,68.8,cuprate
Y0.9Ca0.1Ba2Cu3O6.59,68.8,cuprate
Ca0.2Ba1.55La1.25Cu3O7.159,68.7,cuprate
Ca0.4Ba1.35La1.25Cu3O7.08,68.6,cuprate
Hg1.4Tl0.6Ba2Y0.4Ca0.6Cu2O7.71,68.6,cuprate
Y1Ba1Sr1Cu2.9Sn0.1O7.001,68.6,cuprate
La1.25Ba1.55Ca0.2Cu3O7.16,68.5,cuprate
Y1Ba2Cu2.88Ti0.12O6.88,68.4,cuprate
Bi2Sr2Ca0.85Pr0.15Cu2O8,68.35,cuprate
Eu0.9Pr0.1Ba2Cu3O7,68.3,cuprate
Ho1Sr0.6Ba1.4Cu4O8,68.3,cuprate
La0.9Pr0.1Ba2Cu3O7,68.3,cuprate
Y0.8Pr0.2Ba2Cu3O7.55,68.3,cuprate
Bi1.4Pb0.6Sr2Ca1.8Ga0.2Cu3O7,68.2,cuprate
Nd0.92Pr0.08Ba2Cu3O7,68.2,cuprate
Tl1C1Sr2Ba2Cu2O10,68.2,cuprate
Ho1Sr0.4Ba1.6Cu4O8,68.1,cuprate
Yb0.7Ca0.3Ba1.6Sr0.4Cu3O6.73,68.05,cuprate
Ca0.2La0.45Ba1.55Cu3O7.16,68,cuprate
Dy1Ba2Cu2.9Ga0.1O6.7,68,cuprate
Eu1.8Pr0.2Ba4Cu7O14.779,68,cuprate
La0.9Ca0.1Ba1.5Sr0.5Cu3O6.847,68,cuprate
La2.5Y0.5Ca1Ba3Cu6.58Fe0.42O16.599,68,cuprate
Lu0.7Ca0.3Ba2Cu3O6.4,68,cuprate
Pb0.7Hg0.3Sr4Cu2C1O10,68,cuprate
Pb2Sr2Y0.5Ca0.5Cu3F0.253O7.9858,68,cuprate
Tl1Sr2Ca0.6Y0.4Cu2O7,68,cuprate
Tm1.6Pr0.4Ba4Cu7O14.722,68,cuprate
Y0.8Pr0.2Ba2Cu3O6.81,68,cuprate
Y1Ba1Sr1Cu2.8Mo0.2O7.3,68,cuprate
Y1Ba2Cu2.52Al0.48O6.74,68,cuprate
Y1Ba2Cu2.82Ni0.18O7,68,cuprate
Y1Ba2Cu3H0.24O6.765,68,cuprate
Y1Sr2Cu3O6.92,68,cuprate
Gd0.85Pr0.15Ba2Cu3O7,67.9,cuprate
Pb0.5Sr2Ca0.5Ho0.5Cu2.5O7,67.9,cuprate
Y1Ba1.9La0.1Cu4O7.8,67.8,cuprate
Bi1.4Pb0.6Sr2Ca1.2Ga0.8Cu3O7,67.7,cuprate
Sm1Ba2Cu3O6.734,67.6,cuprate
Y1Ba2Cu2.94Zn0.06O6.97,67.6,cuprate
Y1Ba2Cu2.95Fe0.05O6.79,67.6,cuprate
Y1La0.2Ba1.8Cu3O7.26,67.6,cuprate
Er0.75Ca0.25Ba2Cu3O6.88,67.5,cuprate
La3Ca0.6Cd0.4Ba3Cu7O16.41,67.5,cuprate
Y0.75Ca0.25Ba2Cu2.75Co0.25O6.82,67.5,cuprate
Y0.8Pr0.2Ba2Cu3O7.67,67.5,cuprate
Bi1.4Pb0.6Sr2Ca1.7Ga0.3Cu3O7,67.4,cuprate
Nd1Ba2Cu3O6.85,67.4,cuprate
Y0.8Ca0.2Ba2Cu3O6.59,67.3,cuprate
Bi2Sr2Ca1Cu2O8.256,67.2,cuprate
Yb0.7Pr0.3Ba2Cu3O6.87,67.2,cuprate
Bi1.6Pb0.4Sr2Ca2Cu3O10.34,67.1,cuprate
La1.25Ca0.3Ba1.45Cu3O7.11,67.1,cuprate
Y0.6Ca0.2Pr0.2Ba2Cu3O7,67.1,cuprate
Y1Ba2Cu2.73Ga0.27O7,67.04,cuprate
Bi2Sr1.5Ca1.5Cu2O8.25,67,cuprate
Bi2Sr2Ca0.9Y0.1Cu2I1O8,67,cuprate
Cu3C0.5Ba2Ca2O9,67,cuprate
Dy1Ba2Cu2.9Ni0.1O6.74,67,cuprate
Hg0.65V0.35Sr2Ca0.55Nd0.45Cu2O6.8,67,cuprate
La1.5Ba1Ca0.5Cu3O7.126,67,cuprate
Pb0.5Sr2Y0.6Ca0.4Cu2.5O6.97,67,cuprate
Sr2Y1Cu3O7.75,67,cuprate
Y0.6Ca0.4Ba1.2La0.8Cu3O7.15,67,cuprate
Y0.85Ca0.15Ba2Cu2.85Ni0.15O6.85,67,cuprate
Y1Ba1.9La0.1Cu3O6.85,67,cuprate
Y1Ba2Cu2.97Zn0.03O6.77,67,cuprate
Y2Ba4Cu7O14.95,67,cuprate
Bi1.7Pb0.3Sr2Ca0.7Y0.3Cu1.94Zn0.06O8,66.9,cuprate
Nd1Ba1.2Sr0.8Cu3O6.97,66.9,cuprate
Y0.8Pr0.2Ba2Cu4O8,66.785714,cuprate
Hg0.5Fe0.5Sr2Y0.5Ca0.5Cu2O6.68,66.5,cuprate
Y0.8Pr0.2Ba2Cu3O7.65,66.5,cuprate
Hg1.4Tl0.6Ba2Y0.3Ca0.7Cu2O7.68,66.4,cuprate
Y1Ba2Cu2.75Co0.25O7.06,66.2,cuprate
Y1Ba2Cu2.95Zn0.05O6.85,66.19,cuprate
Gd0.8Ca0.05Mo0.15Ba2Cu3O6.651,66.1,cuprate
Ba1.6Sr0.4Yb0.75Ca0.25Cu3O6.51,66,cuprate
Ba2Ca3Cu4F1.8O8.2,66,cuprate
Bi2Sr2Ca0.5Y0.5Cu2O8.39,66,cuprate
Bi2Sr2Ca0.6Y0.4Cu2I1O8,66,cuprate
Er0.45Ca0.4Hf0.15Ba2Cu3O7.1,66,cuprate
Hg0.85Mo0.15Sr2Cu1O4,66,cuprate
La0.5Sm0.5Ba1Ca1Cu3O7,66,cuprate
La0.95Ca0.05Ba1.5Sr0.5Cu3O6.878,66,cuprate
La1.75Er0.25Ba2Ca0.5Cu4.5O10.662,66,cuprate
La1Ba1Ca1Cu3O6.856,66,cuprate
La1Ba1Ca1Cu3O7,66,cuprate
Lu0.75Pr0.25Ba1.7Sr0.3Cu3O6.9,66,cuprate
Nd2Ba4Cu7O14.525,66,cuprate
Sm1Ba2Cu2.9Fe0.1O6.89,66,cuprate
Y0.76Ca0.24Ba2Cu2.64Co0.36O6.96,66,cuprate
Y0.8Ca0.2Ba1.4La0.6Cu3O7.15,66,cuprate
Y1Ba1.9Cu2.9Co0.1O6.92,66,cuprate
Y1Ba2Cu2.4Ni0.6O6.94,66,cuprate
Y1Ba2Cu3H0.34O7,66,cuprate
Y1Sr2Cu2.8W0.2O7.2,66,cuprate
Gd0.9Mo0.1Ba2Cu3O6.907,65.9,cuprate
Pb0.5Sr2Ca0.5Dy0.5Cu2.5O7,65.9,cuprate
Y0.8Pr0.2Ba2Cu3O8.06,65.8,cuprate
Bi2Sr2Ca1Cu1.96Fe0.04O8,65.7,cuprate
Y1Ba2Cu2.67Ga0.33O7,65.64,cuprate
Y0.9Pr0.1Ba2Cu3O6.8,65.6,cuprate
Nd1.1Ba1.9Cu3O7.05,65.5,cuprate
Y0.8Pr0.2Ba2Cu3O7.79,65.4,cuprate
Y1Ba2Cu2.55Ga0.45O7,65.36,cuprate
Ba2Yb1Cu3O6.66,65.3,cuprate
Ca0.3Ba1.45La1.25Cu3O7.11,65.3,cuprate
Y0.9Ca0.1Ba2Cu3O6.6,65.3,cuprate
Yb0.7Ca0.3Ba1.6Sr0.4Cu3O6.43,65.3,cuprate
La1Ba1.5Sr0.5Cu3O6.967,65.2,cuprate
Bi1.4Pb0.6Sr2Ca0.4Nd0.6Cu2O8.24,65,cuprate
Cu2Mo0.2Sr2Y1O7.3,65,cuprate
Cu5.5Sr2Ca4Cr0.5O13.35,65,cuprate
Er1Ba2Cu2.82Ni0.18O7,65,cuprate
Er1Ba2Cu2.88Zn0.03Fe0.09O6.95,65,cuprate
Eu0.8Pr0.2Ba2Cu3O6.7,65,cuprate
La0.25Sm0.75Ba1Ca1Cu3O7,65,cuprate
La2.1Gd0.9Ca1Ba2.6Sr0.4Cu6.72In0.28O16.54,65,cuprate
La2Ba4Cu6O13.8,65,cuprate
Lu0.8Ca0.2Ba2Cu3O6.54,65,cuprate
Nd1.1Ba1.7Ca0.2Cu3O6.894,65,cuprate
Nd1.2Ba1.4Sr0.4Cu3O6.731,65,cuprate
Nd1Ba1.6Ca0.4Cu3O6.828,65,cuprate
Pb2.04Sr2.07Y0.61Ca0.38Cu3O8,65,cuprate
Pb2Sr2Y0.5Ca0.5Cu3O8.6,65,cuprate
Pb2Sr2Y0.64Ca0.36Cu3O8,65,cuprate
Ru0.8Sr2Y1Cu2.2O8.1,65,cuprate
Tl0.5Pb0.5Sr2Ca1Cu2.98Co0.02O7,65,cuprate
Tl1Sr2Ca0.6Gd0.4Cu2O7,65,cuprate
Y0.95Ca0.05Ba2Cu2.95Zn0.05O6.89,65,cuprate
Y1Ba2.01Cu2.81Ni0.19O6.7,65,cuprate
Y1Ba2Cu2.85Co0.15O7.03,65,cuprate
Y1Ba2Cu2.925Zn0.075O6.94,65,cuprate
Y1Ba2Cu2.94Zn0.06O6.95,65,cuprate
Tl2Ba2Cu1O6.16,64.9,cuprate
Ca0.95Ce0.05Ba1La1Cu3O6.91,64.8,cuprate
Er0.8Ca0.05Hf0.15Ba2Cu3O6.706,64.8,cuprate
Y1Ba2Cu2.61Ga0.39O7,64.8,cuprate
Bi2Sr2Ca1Cu2I0.2O8.242,64.6,cuprate
Y1Ba2Cu2.94Ni0.06O6.78,64.6,cuprate
Y1Ba2Cu3.975Fe0.025O8,64.6,cuprate
Hg1Ba2Cu1O4.01,64.5,cuprate
Tm1Ba2Cu3O6.72,64.5,cuprate
Gd0.7Pr0.2Ca0.1Ba2Cu3O7,64.4,cuprate
Y0.8Pr0.2Ba2Cu3O8.04,64.4,cuprate
Yb1Ba2Cu2.943Zn0.057O6.9,64.3,cuprate
Tm0.7Pr0.3Ba2Cu3O6.95,64.1,cuprate
Bi2Sr2Ca0.6Y0.4Cu2O8.29,64,cuprate
Ca1Ba1La1Cu3O6.97,64,cuprate
Er0.76Ca0.24Ba1.4Sr0.6Cu2.76Co0.24O6.84,64,cuprate
Er0.94Ca0.04Ba2Cu2.82Co0.18O6.76,64,cuprate
Er0.94Ca0.06Ba2Cu2.82Co0.18O6.76,64,cuprate
La1.7Gd0.3Ba2Ca0.6Cu4.6O10.9,64,cuprate
Nd1Ba1Sr1Cu3O6.92,64,cuprate
Sr1.4Ba0.6Cu1F2O2,64,cuprate
Y0.8Ca0.2Ba2Cu2.8Ni0.2O6.77,64,cuprate
Y0.8Ca0.2Sr1Ba1Cu2.7Ga0.3O7,64,cuprate
Y0.95Ca0.05Ba2Cu2.95Co0.05O6.75,64,cuprate
Y1Ba1.9La0.1Cu3O8,64,cuprate
Y1Ba2Cu2.88Zn0.12O6.95,64,cuprate
Y1Ba2Cu2.89Co0.11O7,64,cuprate
Y1Ba2Cu3.8Fe0.2O8,64,cuprate
Y1Ba2Cu4Li0.062O8,64,cuprate
Y1La1.4Ba3.6Cu6O14.2,64,cuprate
Y1Sr2Cu3O7.2,64,cuprate
Y1Ba1Sr1Cu2.85Sn0.15O7.06,63.8,cuprate
Y1Ba2Cu2.9Fe0.1O6.85,63.8,cuprate
Y1Ba1Sr1Cu2.85Sn0.15O7.062,63.7,cuprate
Y0.7Pr0.3Ba2Cu4O8,63.666667,cuprate
Hg0.92Ba2.05Cu1.03O4.103,63.6,cuprate
Pb2Sr2Ho0.5Ca0.5Cu2.982Al0.018O8,63.6,cuprate
Y1Ba2Cu2.925Zn0.075O6.85,63.6,cuprate
Bi1.7Pb0.3Sr2Ca0.6Y0.4Cu2O8,63.5,cuprate
Ca0.4Ba1.25La1.35Cu3O7.16,63.5,cuprate
Eu0.8Pr0.2Ba2Cu4O8,63.5,cuprate
Hg0.5Fe0.5Sr2Y0.2Ca0.8Cu2O6.63,63.5,cuprate
Tl0.5Pb0.5Sr2Ca1Cu2.98Ni0.02O7,63.5,cuprate
Y1Ba2Cu3.939Ni0.061O8,63.5,cuprate
Y1Ba2Cu2.4Ga0.6O7,63.31,cuprate
Gd1Ba1.9Pr0.1Cu3O7.03,63.3,cuprate
Y0.8Pr0.2Ba2Cu3O7.2,63.3,cuprate
Bi2Sr2Ca1Cu2I0.43O8.21,63.1,cuprate
Al1Sr2Ca2Cu3O9.3,63,cuprate
Dy1Ba2Cu2.8Ni0.2O6.83,63,cuprate
Er1Ba2Cu2.91Zn0.06Fe0.03O6.93,63,cuprate
Eu0.8Pr0.2Ba2Cu3O7,63,cuprate
Eu1.6Pr0.4Ba4Cu7O14.761,63,cuprate
Ga1Sr2Ca3Cu4O11.5,63,cuprate
La0.7Ca0.2Pr0.1Ba1.5Sr0.5Cu3O6.809,63,cuprate
Nd1Ba2Cu3O6.78,63,cuprate
Y0.6Pr0.4Ba2Cu4O7.95,63,cuprate
Y0.8Ce0.1Ca0.1Ba2Cu4O8,63,cuprate
Y1Ba1.75Cu2.75Co0.25O7.06,63,cuprate
Y1Ba2Cu2.05Al0.95O6.7,63,cuprate
Y1Ba2Cu2.697Mn0.303O6.9,63,cuprate
Y1Ba2Cu3.964Ni0.036O8,63,cuprate
Y1Ba2Cu3.972Zn0.028O8,63,cuprate
Y1Ba2Cu3.976Zn0.024O8,63,cuprate
Y1Sr2Cu2.8Re0.2O7.2,63,cuprate
Yb0.7Pr0.3Ba1.7Sr0.3Cu3O6.93,63,cuprate
La1.25Ca0.25Ba1.5Cu3O7.087,62.9,cuprate