Formula,Tc,Materials_family
Pb0.1999In0.2Sn0.6001Te1,3.59,others
Zr0.8Ni0.2,3.47,others
Pr1Fe1P1O1,3.586667,iron-based
Pb0.3523In0.12Sn0.5277Te1,3.58,others
Ta0.24V0.76,3.58,others
Ta0.9V0.1,3.58,others
Bi2K1,3.575,others
Tl0.9Ag0.1,3.57,others
V2Ga5,3.57,others
Zr0.73Rh0.27,3.57,others
Zr0.87Ru0.13,3.57,others
H0.69Nb0.8Pd0.2,3.56,others
La0.93Yb0.07,3.56,others
Ta0.4125Nb0.1375Rh0.45,3.56,others
Th1Os1.6Ir0.4,3.56,heavy-Fermion
Zr0.663Ti0.117Ni0.22,3.56,others
D0.85Pd1,3.558,others
Zr0.82Ru0.18,3.555,others
In1,3.549543,others
Ir0.01Na0.75H2.6Co0.99O3.3,3.54,others
Zr0.892Si0.108,3.54,others
Ta1Pt1Si1,3.54,others
Y0.7Gd0.3Rh4B4,3.54,others
Sr1,3.5375,others
Ba1Fe1.77Ni0.23As2,3.53,iron-based
Tl0.05Pb0.95,3.5275,others
Ca2Rb1Li0.46Nb3O10,3.525,others
Sc2Sr4Ni2P2O6,3.525,others
Ca2Rb1Li0.34Nb3O10,3.52,others
Pb0.5Mo0.5,3.52,others
Mo0.5Pd0.5,3.52,others
Sr1Ga1.3Si0.7,3.52,others
Ti0.72V0.18Al0.1,3.52,others
Y0.81Th0.19C2,3.52,others
Bi1.75Ba2Sb1.25,3.51,others
Ce1Bi1O0.34S2F0.9,3.51,others
In1.015Te1,3.51,others
Sc0.14Lu1.86Fe3Si5,3.51,heavy-Fermion
Y0.14Lu1.86Fe3Si5,3.51,heavy-Fermion
Na0.24H2.6Co1O3.3,3.51,others
Nd1Bi1O0.74S2F0.3,3.51,others
Y1Ru3.5Si2,3.51,others
Y1Ru3Si2,3.51,others
Ge1As1,3.5,others
Sn3As2,3.5,others
Ba0.9K0.1Fe2As2,3.5,iron-based
Pb0.75Ba1Sb0.25O3,3.5,others
Bi2.14O0.76S2F0.24,3.5,others
Bi4O4S2.85Se0.15,3.5,others
Bi4Te3,3.5,others
Ca1Ga0.74Si1.26,3.5,others
Tl0.9Cd0.1,3.5,others
Ce1Os3B2,3.5,heavy-Fermion
Ce1Ru1.97Co0.03,3.5,heavy-Fermion
Ti0.975Cr0.025,3.5,others
Ti0.973Cr0.027,3.5,others
La0.7Cu0.3,3.5,others
Dy5Os4Si15,3.5,heavy-Fermion
Hf1Ir1Si1,3.5,others
In1Te1.002,3.5,others
Ir0.77Se2,3.5,others
Y1Ir3,3.5,others
La0.8Sr0.2Ni1As1O1,3.5,others
La1Fe0.905Zn0.095As1O0.68F0.28,3.5,iron-based
La1Ru2Si2,3.5,heavy-Fermion
La3Rh2Ge2,3.5,heavy-Fermion
Li3Mo15Se19,3.5,others
Mo0.1215Ti0.8785,3.5,others
Re2Mo4Te8,3.5,others
Ta2Na0.3Sb1S5,3.5,others
Ta2Na0.4H3.6Sb1.16O1.8S5.16,3.5,others
Ba4.5Na2.9Si46,3.5,others
Nd1Mo6S8,3.5,others
Rh0.04Ti0.91Ni0.05,3.5,others
Os0.05Rh0.04Ti0.91,3.5,others
Pb0.35In0.12Sn0.53Te1,3.5,others
Pr0.8Sr0.2Fe0.925Co0.075As1O1,3.5,iron-based
Zr0.995Rh0.005,3.5,others
Ru0.05Rh0.04Ti0.91,3.5,others
Rh0.08Ti0.92,3.5,others
Ir2Rh15S15,3.5,others
Ru0.1Ti0.9,3.5,others
Tl0.9Sn0.1,3.5,others
In0.2Sn0.8Se0.3Te0.7,3.5,others
W1Sr0.2S2,3.5,others
Sr1Ga0.5Si1.5,3.5,others
Tl0.61V6S8,3.5,others
Y0.5Pr0.5Ba2Cu3O6.66,3.5,cuprate
Y0.95Ca0.05Ba2Cu2.8Zn0.2O6.74,3.5,cuprate
Y0.96Gd0.04Ru2,3.5,others
Ca1Fe0.74Co0.26As1F1,3.49,iron-based
Ti1Cu0.057Se2,3.49,others
Lu1Os2,3.49,heavy-Fermion
Ce0.5Nd0.5Bi1O0.5S2F0.5,3.48,others
W0.1H0.47Nb0.72Pd0.18,3.48,others
La1Ni0.75Cu0.25C2,3.48,others
La2.952Gd0.048In1,3.48,heavy-Fermion
Mg1Ru0.2Ni2.8C1,3.48,others
Ru0.445V0.555,3.48,others
H0.886Pd1,3.478,others
Pb1Te1,3.476667,others
Bi0.4Ba1Ti2Sb1.6O1,3.47,others
La0.9709Ce0.0291Sn3,3.47,heavy-Fermion
Nb0.75Mo0.25,3.47,others
Zr0.78Ni0.22,3.47,others
Ru0.28Cr0.72,3.468,others
Th2Cu1,3.465,heavy-Fermion
Nd1Fe1P1O1,3.465,iron-based
Ba1Fe1.952Ni0.048As2,3.463333,iron-based
Rh2Cu1Se4,3.4625,others
H0.6Nb0.8Pd0.2,3.46,others
Y0.9Dy0.1Pd2Sn1,3.46,others
Sc1Ir1P1,3.46,others
Ta0.975Re0.025,3.458,others
Cu1Al1,3.45,others
Ca1Al0.4Ga0.6Si1,3.45,others
Ta1Cu0.08S2,3.45,others
Tl0.83In0.17,3.45,others
Pb0.02In0.98,3.45,others
La0.1Nd0.9Pt2.1B2.4C1.2,3.45,heavy-Fermion
La1Ni0.8Cu0.2C2,3.45,others
Sc0.1Y0.9Ir3.6Rh0.4B4,3.45,others
Ce1Bi1O0.5S2F0.5,3.446,others
Ti2Co1,3.44,others
Ti0.54V0.36Al0.1,3.44,others
Ba1,3.4375,others
Mo0.16Ru0.64P0.2,3.43,others
Ce0.14Pr0.86Pt4Ge12,3.43,heavy-Fermion
Y0.7Th0.3C2,3.43,others
Hg0.048In0.952,3.427,others
Dy0.8Tm0.2Ni2B2C1,3.42,heavy-Fermion
Hg8K1,3.42,others
La0.98Nd0.02Pt1Si1,3.42,heavy-Fermion
Nb0.9Pd0.1,3.42,others
Hf1D1V2,3.41,others
In1.05Te1,3.41,others
Ba1Fe1.78Ni0.22As2,3.4,iron-based
Hf0.5Mo0.5C1,3.4,others
Ca1Ge3,3.4,others
La0.987Ce0.013,3.4,others
Ce1Pt0.2Ru1.8,3.4,heavy-Fermion
Ti1Cu0.065Se2,3.4,others
Cr0.05Co1.95Cu1S4,3.4,others
Cr0.02Co1.98Cu1S4,3.4,others
H0.51Nb0.8Pd0.2,3.4,others
La0.8Lu0.2,3.4,others
La1Pt1Ge1,3.4,heavy-Fermion
Mo3S1Se3,3.4,others
Pb1.14Nb2Se5.14,3.4,others
W1Rb0.1Li0.02O2.88F0.12,3.4,others
W0.05Rh0.91Ti0.4,3.4,others
Mo6Sn1Se8,3.4,others
Sr1Ga0.55Si1.45,3.4,others
Sr3Rh8B6,3.4,others
Ta0.96W0.04,3.4,others
V0.751Al0.041Sb0.208,3.4,others
Yb3Co4.3Sn12.7,3.4,heavy-Fermion
Zr1Pd2Al1,3.4,others
Hg0.004In0.996,3.396,others
Ta0.55Ir0.45,3.39,others
Ce0.93Gd0.07Ru2,3.38,heavy-Fermion
H0.61Nb0.76Pd0.24,3.38,others
Lu1Ni0.8Cu0.2B1C1,3.38,heavy-Fermion
Mg1Ni3C0.906,3.38,others
W1.75Ru1.25B2,3.38,others
Ba1Fe1.79Co0.09Zn0.12As2,3.37,iron-based
Pt2.7Li2Pd0.3B1,3.37,others
Rh0.287Ti0.573O0.14,3.37,others
W1Rh1,3.37,others
Ta0.55Rh0.45,3.37,others
Rh0.287Ti0.576O0.14,3.37,others
Ce1Bi1O0.3S2F0.7,3.366667,others
Th2Au1,3.365,heavy-Fermion
La2.7Pr0.3Se4,3.36,others
Th1In0.75Sn2.25,3.36,heavy-Fermion
Re24Al5,3.35,others
Bi2Nb0.28Se3,3.35,others
Zr3Ni1,3.35,others
Pb0.48In0.2Sn0.32Te1,3.35,others
Cd0.01In0.99,3.3445,others
Hg0.016In0.984,3.342,others
Ca1Al0.1Ga0.9Si1,3.34,others
Ce1Ir3,3.34,heavy-Fermion
Na0.3H2.6Mn0.015Co0.985O3.3,3.34,others
Pd1Sn2,3.34,others
Lu1C2,3.33,others
La0.84Tm0.16Sn3,3.33,heavy-Fermion
Th1Sn3,3.33,heavy-Fermion
Zr0.75Co0.25,3.325,others
Ta1Ni0.02S2,3.325,others
Y0.06Ce0.84Gd0.1Ru2,3.32,heavy-Fermion
Ir2Cu0.8Zn0.2S4,3.32,others
In1Sb1,3.32,others
Mo15In3Se19,3.32,others
Re0.16Zr0.84,3.32,others
Zr0.702Ti0.078Ni0.22,3.32,others
Ta0.4125Ir0.45Nb0.1375,3.315,others
V0.96Al0.04,3.31,others
La1Ni0.85Cu0.15C2,3.31,others
Pb0.16In0.2Sn0.64Te1,3.31,others
Ba8Ga6Si40,3.3,others
W0.26C0.74Si1,3.3,others
Ir1Ca1Si3,3.3,others
Pb19Ca4Rh6,3.3,others
Ti1Fe0.5Co0.5,3.3,others
Zr0.85Co0.15,3.3,others
V0.901Cr0.099,3.3,others
U6Cr0.2Fe0.8,3.3,heavy-Fermion
Ru3Cr1,3.3,others
Ru1Cr3,3.3,others
W1Cs0.1Li0.05O2.85F0.15,3.3,others
Cu0.5Ge0.5,3.3,others
Ir2Cu0.75Zn0.25S4,3.3,others
Ir2Cu0.78Zn0.22S4,3.3,others
Ge0.3Sb0.7,3.3,others
In2O3,3.3,others
La0.95Pr0.05Pb3,3.3,heavy-Fermion
La1.78Sr0.22Cu0.97Zn0.03O4,3.3,cuprate
Lu1Ni0.9Cu0.1B1C1,3.3,heavy-Fermion
Mo0.05Rh0.04Ti0.91,3.3,others
Mo3S2Se2,3.3,others
Th1N1,3.3,heavy-Fermion
Nb1S1.06,3.3,others
Ta2Pb1.14S5.14,3.3,others
In0.2Sn0.8Se0.05Te0.95,3.3,others
Th0.2Zr0.8,3.3,others
Y0.9Fe0.1B6,3.3,others
Y1Pt0.5Ge1.5,3.3,others
Y2Pd1Si0.5Ge2.5,3.3,others
La1Bi1O0.5Se2F0.5,3.296,others
Cd0.02In0.98,3.2945,others
La1Ru4Sb12,3.293333,heavy-Fermion
V0.98Ni0.02,3.29,others
V0.98Sb0.02,3.29,others
Ba1Ni2P0.154As1.846,3.28,others
V0.983Co0.017,3.28,others
Hg3Zr1,3.28,others
La0.91Lu0.09,3.28,others
Cd0.03In0.97,3.2755,others
Bi2Nb0.25Se3,3.275,others
Bi1Ru1,3.273333,others
Ba1Ni2P0.184As1.816,3.27,others
Os2Cs1O6,3.27,others
Hf4K1,3.27,others
Hg4K1,3.27,others
La0.97Nd0.03Pt1Si1,3.27,heavy-Fermion
Cu0.5Sn0.5,3.26,others
Ta0.92H0.08,3.26,others
Pd0.07Ti0.93,3.26,others
Cd0.04In0.96,3.2595,others
Ce0.6Nd0.4Bi1O0.3S2F0.7,3.256,others
La0.6Sm0.4Bi1O0.5S2F0.5,3.255,others
Ce0.6Nd0.4Bi1O0.7S2F0.7,3.25,others
La1Pd0.8Sb2,3.25,heavy-Fermion
Mo0.1Ti0.9,3.25,others
W1Rb0.23O3,3.25,others
Y1Se1,3.25,others
Ta0.07Zr0.93,3.25,others
Y2C2Cl1.5Br0.5,3.25,others
Ba1Ni2P0.208As1.792,3.24,others
Ca1Al0.2Ga0.8Si1,3.24,others
Tb0.25Dy0.75Ni2B2C1,3.24,heavy-Fermion
La1Ni0.9Cu0.1C2,3.24,others
Y0.98Gd0.02Pd2Sn1,3.24,others
Pt0.07Sr1Pd1.93Ge2,3.24,others
Na0.26H2.6Co1O3.3,3.236667,others
La0.68Al0.32,3.23,others
La0.98Gd0.02Ru2,3.23,heavy-Fermion
La1Al2,3.23,heavy-Fermion
La1Pt0.9Ni0.1Si1,3.23,heavy-Fermion
Pt0.08Sr1Pd1.92Ge2,3.23,others
Tl0.2In0.8,3.223,others
Pt0.06Sr1Pd1.94Ge2,3.22,others
Th1Os1.2Ir0.8,3.22,heavy-Fermion
Zr0.624Ti0.156Ni0.22,3.215,others
Zr0.868Si0.132,3.21,others
Y0.5Lu0.5Ir4B4,3.21,others
La1.85Sr0.15Cu0.96Ni0.04O4,3.2005,cuprate
La0.67Au0.33,3.2,others
Ba1Ag0.2Si1.8,3.2,others
Ba1Ag0.3Si1.7,3.2,others
Au0.3Ba1Si1.7,3.2,others
Ir8Ba4Ge28,3.2,others
Bi2.13O0.83S2F0.17,3.2,others
Ir1Mo3C1,3.2,others
Ca1Cu0.25Si1.7,3.2,others
Ti1Cu0.1Se2,3.2,others
Bi2Cu0.29Se3,3.2,others
W1H1.33N0.33O3,3.2,others
Hf1Os1As1,3.2,others
Mg2In1,3.2,others
Ir0.53Rh0.42Te2,3.2,others
Ba4.9K2.9Si46,3.2,others
La0.9997Ce0.0003Pt1Si1,3.2,heavy-Fermion
La1Os4As12,3.2,heavy-Fermion
La3Pr0.6In1,3.2,heavy-Fermion
Sc0.1Lu1.9Ir3Si5,3.2,heavy-Fermion
Lu1Ni1B0.8C1.2,3.2,heavy-Fermion
Lu4Ir6Sn19,3.2,heavy-Fermion
Pb0.445In0.13Sn0.445Te1,3.2,others
Pb1Mo6S4Se4,3.2,others
Y0.25Hf0.75Pd2Al1,3.2,others
Pt0.25V0.75,3.2,others
Sc4Rh6Sn19,3.2,others
Tb5Os4Si15,3.2,heavy-Fermion
Tm1Co0.18Ni1.91B2C1,3.2,heavy-Fermion
Y4Rh6Sn19,3.2,others
Hf1Zr1As1,3.2,others
La0.25Ce0.75Ru2,3.196,heavy-Fermion
Hf1Ru1As1,3.193333,others
Re7B3,3.19,others
Ir0.03Zr0.97,3.19,others
Tl2.4Pb0.6Ca1,3.18,others
Hg3K1,3.18,others
Tl0.22In0.78,3.18,others
Nb2Pd1S4.25Se0.75,3.18,others
Bi3Rh1,3.175,others
Sr1Ga0.7Si1.3,3.17,others
V0.975Sn0.025,3.16,others
Pt0.04Sr1Pd1.96Ge2,3.16,others
Th1Os0.8Ir1.2,3.16,heavy-Fermion
Zr2Co0.5Ni0.5,3.155,others
La1Ni0.95Cu0.05C2,3.15,others
La3Ru8B6,3.15,heavy-Fermion
Nb1Ni2Sn1,3.15,others
Sr1Pd1.8Ni0.2Ge2,3.15,others
Ta1Ru1Si1,3.15,others
Y0.9Ca0.1C2,3.15,others
Ce0.8Nd0.2Bi1O0.3S2F0.7,3.145,others
Ba0.95Na0.05Ti2Sb2O1,3.14,others
Y3.6Tm1.4Rh6Sn18,3.14,heavy-Fermion
Y5Rh6Sn18,3.14,others
Cd1Ni3C1,3.133333,others
Th1Pt5,3.13,heavy-Fermion
Sr1Fe2P1.2As0.8,3.13,iron-based
La0.98Tb0.006Lu0.014,3.127,others
Y2Pd1Ge3,3.125,others
Ba8Si28Ge18,3.12,others
Zr0.72Co0.28,3.12,others
Re0.26Cr0.74,3.12,others
H0.59Nb0.72Pd0.28,3.12,others
Tl0.9In0.1,3.12,others
La1Ru2.925Fe0.075Si2,3.12,heavy-Fermion
Ru0.475V0.525,3.12,others
Mo5Zn1S6,3.12,others
Zr0.76Ni0.24,3.115,others
La0.7Sm0.3Bi1O0.5S2F0.5,3.11,others
Ta1Pb1S3,3.11,others
Zr0.73Ru0.27,3.11,others
Pb0.1677In0.16Sn0.6723Te1,3.11,others
Be1,3.1065,others
La1Fe1P0.2As0.8O1,3.103333,iron-based
Hf1B1,3.1,others
Zr1B1,3.1,others
Ca1Cu0.25Si1.75,3.1,others
Sc0.97Cr0.03,3.1,others
Dy1Co0.02Ni1.99B2C1,3.1,heavy-Fermion
Er1Co0.1Ni1.9B2C1,3.1,heavy-Fermion
Pd0.4Ge0.6,3.1,others
Y0.25La0.75Bi1O0.5S2F0.5,3.1,others
La1Bi1O0.77S2F0.3,3.1,others
La1Ir1As1,3.1,heavy-Fermion
La3Rh4Sn13,3.1,heavy-Fermion
Sc0.08Lu1.92Ir3Si5,3.1,heavy-Fermion
Lu2Ir2.7Rh0.3Si5,3.1,heavy-Fermion
Zr1Ni0.05Te3,3.1,others
Zr0.73Ni0.27,3.1,others
Zr1Pd2In1,3.1,others
W1Rb0.1Li0.05O2.85F0.15,3.1,others
La0.45Bi1Sr0.55S2F1,3.1,others
Th1Ir0.2Ru1.8,3.1,heavy-Fermion
Ti2In1C1,3.1,others
Bi2Cu0.4Se3,3.09,others
Nb1Sn1Se3,3.09,others
Sc0.3Y0.7Ir3.6Rh0.4B4,3.09,others
Ti0.975Fe0.025,3.08,others
Lu1Ir2Rh2B4,3.08,heavy-Fermion
Pa0.85Mo0.15,3.08,others
Ta1Pb1.13S3.13,3.08,others
Pd0.19Ti0.81,3.08,others
La1Fe4P12,3.075,others
Os1Be2,3.07,others
Ir0.97Pt0.03Te2,3.07,others
Pt2.52Li2Pd0.48B1,3.07,others
Nb0.45Rh0.55,3.07,others
Nb0.9Rh1.1,3.07,others
Y0.4Lu0.6Ir4B4,3.07,heavy-Fermion
Y0.15La0.85,3.06,others
Zr0.84Ni0.16,3.06,others
Zr0.79Ni0.21,3.06,others
Y0.25Tm0.75Pd2Sn1,3.06,heavy-Fermion
Y0.6Lu0.4Ir4B4,3.06,others
Mo1Ge2,3.055,others
Bi2Sr0.15Se3,3.055,others
Ta0.25Mo1.75B1,3.05,others
Ta1Cu0.01S2,3.05,others
H0.46Nb0.69Pd0.31,3.05,others
Hg4Na1,3.05,others
Mo0.0905Ti0.9095,3.05,others
W1Na0.2O3,3.05,others
Nb0.5Ti0.25Sb0.25,3.05,others
Lu1Pd2Sn1,3.05,heavy-Fermion
Ru7B3,3.05,others
La0.9Th0.9Ru2,3.05,heavy-Fermion
U6Fe0.5Co0.5,3.05,others
Ir0.01Co1.99Cu1S4,3.04,others
La0.96Nd0.04Pt1Si1,3.04,heavy-Fermion
Ta1S0.4Se1.6,3.04,others
Y0.2Lu0.8Ir4B4,3.04,heavy-Fermion
In0.2Sn0.8Te1,3.035,others
La0.9647Ce0.0333Sn3,3.03,heavy-Fermion
La2Sb1,3.025,heavy-Fermion
Cd1Ge1As2,3.02,others
Ba1Cu0.2Si1.8,3.02,others
Sc1Au2In1,3.02,others
W0.75Os0.25,3.02,others
Au0.5Pb2Pd0.5,3.02,others
W0.67Pt0.33,3.02,others
La0.9Ce0.1Ru2,3.012,heavy-Fermion
Ta2Ba1S5,3.01,others
La1Bi1O0.5S0.6Se1.4F0.5,3.01,others
Pd1Te1,3.01,others
Sc0.2Y0.8Ir3.6Rh0.4B4,3.01,others
Sc0.5Y0.5Ir3.6Rh0.4B4,3.01,others
Pt1V3,3.005,others
Y2Ir3Si5,3.005,others
Bi2Ag1,3,others
Au0.5Rh0.4Ti0.91,3,others
Nd1B6,3,heavy-Fermion
Ba0.8K0.2Ti2Sb2O1,3,others
Ba1Cu0.3Si1.7,3,others
Ba8Al8Si38,3,others
Bi2O0.8S2F0.2,3,others
Bi2Sr2Cu1O6.18,3,cuprate
Ca1Al0.3Ga0.7Si1,3,others
Ca1Cu0.25Si1.6,3,others
Ce0.6Nd0.4Bi1O0.5S2F0.5,3,others
Ce1Pb0.6Bi3.4Te6,3,others
Ce1Pb0.5Bi3.5Te6,3,others
Ce1Pb0.4Bi3.6Te6,3,others
Cr0.1Co1.9Cu1S4,3,others
Nd2Eu1S5,3,others
Ta1Fe0.05S2,3,others
U6Fe0.25Ni0.75,3,heavy-Fermion
La0.07Ho0.93Ni2B2C1,3,heavy-Fermion
Ir0.5Pt0.5Te2,3,others
Ir0.5Te0.5,3,others
La1.82Sr0.18Cu0.97Co0.03O4,3,cuprate
La1.85Sr0.15Cu0.979Co0.021O4,3,cuprate
La1Bi1O0.5S1.4Se0.6F0.5,3,others
La1Fe0.85Co0.15As1O1,3,iron-based
La1Ni1P1O1,3,others
La3Rh2Sn13,3,heavy-Fermion
Yb0.02Lu4.98Ir4Si10,3,heavy-Fermion
Ti0.899Mn0.101,3,others
Nb0.85Rh0.15,3,others
Nb0.85Rh1.15,3,others
Au1Nb2.25V0.75,3,others
Zr0.83Ni0.17,3,others
W1Sr0.08O3,3,others
W3Os1,3,others
Pr1.8Ce0.2Cu1O4,3,cuprate
Pt1Zr1,3,others
W1Rb0.27O2.93,3,others
Ta1Rb0.33S2,3,others
W0.024Re0.976,3,others
Ta2Sb1.16S5.16,3,others
Ta0.7V0.3,3,others
Y1Os4P12,3,others
Ni3Zn1N1,3,others
Zr0.75Pd0.25,3,others
Zr0.55Nb0.05Ni0.05Cu0.25Al0.1,3,others
K1Fe2As2,2.9965,iron-based
Bi3.9Cu0.1S3O4,2.995,others
Bi3.975Cu0.025S3O4,2.99,others
La1.865Ba0.135Cu1O4,2.99,cuprate
Na0.75H2.6Co0.995Ga0.005O3.3,2.99,others
Ir0.96Pd0.04Te2,2.99,others
Tl0.31In0.69,2.98,others
Zr0.82Ni0.18,2.98,others
Pb2Pd1,2.98,others
Pb0.176In0.12Sn0.704Te1,2.98,others
Sr1Ga0.6Si1.4,2.98,others
Y0.3Lu0.7Ir4B4,2.98,heavy-Fermion
Ir0.96Pt0.04Te2,2.9725,others
Pr0.035Bi0.965Ba0.47K0.53O3,2.97,others
Mo3Sb7,2.97,others
Os0.025Zr0.975,2.97,others
Zr3Pd1,2.96,others
Ta1Sn1S3,2.96,others
La0.6Bi1Sr0.4S2F1,2.96,others
Pt0.02Sr1Pd1.98Ge2,2.96,others
Ta2Sr1S5,2.955,others
Bi2Cu0.1Se3,2.95,others
Ti2Cu0.1Se2,2.95,others
Ir2Cu0.7Zn0.3S4,2.95,others
Dy1Ga6,2.95,heavy-Fermion
Mo0.913Ti0.037,2.95,others
Mo0.913Ti0.087,2.95,others
Mo0.91Ti0.09,2.95,others
Os2Zr1,2.95,others
H0.9Pd0.95Ni0.05,2.95,others
V0.95Si0.05,2.95,others
Re0.1Mo0.9,2.945,others
Bi0.5Sb0.5,2.94,others
Tm0.45Lu0.55Ru1B2,2.94,heavy-Fermion
Lu1V0.1Ni0.9B1C1,2.94,heavy-Fermion
Bi14Rh3,2.94,others
Zr0.87Ge0.13,2.94,others
Hg0.25Pb0.5Bi0.25Ba1O3,2.93,others
V0.94Cr0.06,2.93,others
La0.9Sm0.1Bi1O0.5S2F0.5,2.93,others
Th1Os1.8Ir0.2,2.93,heavy-Fermion
Ga1N1,2.925,others
Mo5Cd1S6,2.923333,others
Hf0.654Mo0.346,2.92,others
Nb0.25V0.75N0.94,2.92,others
Zr0.99Rh0.01,2.92,others
Ru0.43V0.57,2.92,others
Sc0.25Y0.75Ir3.6Rh0.4B4,2.92,others
La0.5Bi1Sr0.5S2F1,2.92,others
Sr1Rh0.2Pd1.8Ge2,2.92,others
Pb0.9Bi0.1Ba1O3,2.91,others
Ba1Pd0.2Si1.8,2.91,others
Nd1Pt2.1B2.4C1.2,2.91,heavy-Fermion
Zr0.8Pd0.2,2.91,others
Y5Ir4Si10,2.906667,others
Ba1Al1Sn1,2.9,others
Ba1Pd0.3Si1.7,2.9,others
Ba8Cu4Si42,2.9,others
W0.22C0.78Si1,2.9,others
W3Os2C1,2.9,others
Ca1Cu0.25Si1.55,2.9,others
Ce1Pb0.8Bi3.2Te6,2.9,others
Ce1Pb0.7Bi3.3Te6,2.9,others
Ce1Pb0.3Bi3.7Te6,2.9,others
Pb0.3Bi3.7Cs1Te6,2.9,others
Pt0.3Ga0.7,2.9,others
Nb4Ga1Se8,2.9,others
Pt3Ga7,2.9,others
K0.9Na0.1Fe2As2,2.9,iron-based
La0.9985Tb0.0015Al2,2.9,heavy-Fermion
La1Al1.995Si0.005,2.9,heavy-Fermion
Lu1Co0.38Ni1.81B2C1,2.9,heavy-Fermion
Lu1Ni1B0.9C1.1,2.9,heavy-Fermion
Lu1Rh2Sn1,2.9,heavy-Fermion
Pt0.5Au0.5Mg1Si1,2.9,others
V1N0.82,2.9,others
Re0.5Nb0.5,2.9,others
Au1Nb2.01V0.99,2.9,others
Nd1Fe1P1O0.9F0.1,2.9,iron-based
Pb1.12Nb2Se5.12,2.9,others
Y0.5Hf0.5Pd2Al1,2.9,others
Rh0.91Ti0.4V0.05,2.9,others
Ru0.3V2.7Si1,2.9,others
Ta0.05Ti0.95,2.9,others
Y1.968Lu0.032Fe3Si5,2.9,others
Y1Fe2Si2,2.9,others
Zr1Ru0.9Rh0.1P1,2.9,others
Sr1Pd2Ge2,2.892,others
Li0.9Mo6O17,2.891667,others
Sc0.125Zr1.875Co1,2.89,others
Hf0.8Mo0.2,2.89,others
Lu1Ir3,2.89,heavy-Fermion
Y0.005La0.995Mn0.005Fe0.995As1O0.89F0.11,2.89,iron-based
La1Ni1C2,2.89,others
Pt0.1Sr1Pd1.9Ge2,2.89,others
Zr0.78Pd0.22,2.88,others
Zr1Ni2Ga1,2.87,others
V0.98Sn0.02,2.87,others
Bi2Sr0.1Se3,2.87,others
Th1Ir0.4Ru1.6,2.87,heavy-Fermion
Th1Ir0.6Ru1.4,2.87,heavy-Fermion
Th1Ir1.6Ru0.4,2.87,heavy-Fermion
La1Bi2Pd0.8,2.865,heavy-Fermion
Th1Si2,2.862,heavy-Fermion
Rh1.9Cu1Sn0.1Se4,2.86,others
Hf1Pd2In1,2.86,others
Pt3Li2B0.99Al0.01,2.86,others
Os0.5Nb0.5,2.86,others
Os1Nb1,2.86,others
Zr0.63Rh0.37,2.86,others
U6Mn0.5Fe0.5,2.86,others
Y2Dy3Os4Ge10,2.86,heavy-Fermion
Y9Co7,2.85,others
La0.85Th0.15Bi1O1S2,2.85,others
Nb1Sn1S3,2.85,others
Pb0.18In0.08Sn0.74Te1,2.85,others
Sn0.3Sb0.7,2.85,others
Ta1Sn1.15S3.15,2.85,others
Ta0.92W0.08,2.85,others
Y2C2Cl1.75Br0.25,2.85,others
Ba1Ni2Ge0.4P1.6,2.84,others
Bi1Zr3,2.84,others
Ti0.968Co0.032,2.84,others
Ir1Cu0.05Te2,2.84,others
Tm0.5Lu4.5Ir4Si10,2.84,heavy-Fermion
Pb0.184In0.08Sn0.736Te1,2.84,others
Zr0.77Pd0.23,2.84,others
W0.6Si0.4,2.84,others
W3Si2,2.84,others
Nb2.01Ti0.99Sb1,2.84,others
Y1Pt2,2.835,others
V0.94Al0.06,2.83,others
Na0.32H2.6Co1O3.3,2.825,others
Rh0.02Co1.98Cu1S4,2.82,others
Dy1Ir1.2Rh2.8B4,2.82,heavy-Fermion
Ir0.43Rh0.52Te2,2.82,others
La1Pt0.8Ni0.2Si1,2.82,heavy-Fermion
Mg0.8Ni3Zn0.2C1,2.82,others
Tm1Pd2Sn1,2.82,heavy-Fermion
Pt0.01Sr1Pd1.99Ge2,2.82,others
Y0.8Ca0.2C2,2.82,others
Ce1Bi1O0.6S2F0.4,2.81,others
Ta0.88H0.12,2.81,others
Pb0.1425In0.05Sn0.8075Te1,2.81,others
Al1Sb1,2.8,others
Ba1Al0.95Si1.05,2.8,others
Ba8Si25Ge21,2.8,others
Be0.3Zr0.7,2.8,others
Mo1C0.42,2.8,others
Tl1.8Pb1.2Ca1,2.8,others
Ce1Pb0.9Bi3.1Te6,2.8,others
Cs0.5Nb1S2,2.8,others
Ir2Cu0.65Zn0.35S4,2.8,others
Co1.5Cu1.5S4,2.8,others
In1.1Te1,2.8,others
La1.79Sr0.21Cu0.94Fe0.06O4,2.8,cuprate
La1.85Sr0.15Cu0.973Zn0.027O4,2.8,cuprate
La1Pd0.6Ge0.14,2.8,heavy-Fermion
La3Co4Ge13,2.8,heavy-Fermion
Sc0.04Lu1.96Ir3Si5,2.8,heavy-Fermion
Mg1Ru0.3Ni2.7C1,2.8,others
Mo0.0708Ti0.9292,2.8,others
Pt0.17Mo0.93,2.8,others
Na0.38H2.6Co1O3.3,2.8,others
Nb0.9Rh0.1,2.8,others
Nb0.9Ru0.1,2.8,others
Pt0.1Nb3Rh0.9,2.8,others
Pt0.2Pb0.8,2.8,others
Pt1Pb4,2.8,others
Ho1Pd0.4Te3,2.8,others
H0.79Pd0.985Ni0.015,2.8,others
Y0.85Dy0.15Pd2Sn1,2.8,others
Ta0.25V0.5Sn0.25,2.8,others
Ta1V2Sn1,2.8,others
Ta1Sr0.2S2,2.8,others
Ce0.5Bi1Sr0.5S2F1,2.8,others
Ir2Sr1As2,2.8,others
Sr1Ni0.3Si1.7,2.8,others
Ta0.25V0.75,2.8,others
Mo6Zn1S8,2.8,others
Be0.275Zr0.4675Ti0.0825Ni0.1Cu0.075,2.8,others
La3Gd0.0065Al1,2.79,heavy-Fermion
Ba1Ag0.4Si1.6,2.79,others
Ir0.02Co1.98Cu1S4,2.79,others
Hf0.834W0.166,2.79,others
Y0.05La0.95Ni1C2,2.79,others
Lu5Rh4Ge10,2.79,heavy-Fermion
Tm0.8Lu0.2Fe3Si5,2.79,heavy-Fermion
Lu1Ni1B1C1,2.786667,heavy-Fermion
Au0.12Zr0.88,2.78,others
Au0.1Zr0.9,2.78,others
La0.999Gd0.001Al2,2.78,heavy-Fermion
Zr0.71Ni0.29,2.78,others
Pt3Sr0.67B2,2.78,others
Ta0.91W0.09,2.78,others
Zr0.546Ti0.234Ni0.22,2.78,others
La1Pt0.7Ni0.3Si1,2.775,heavy-Fermion
Pb1.16Ti2Se5.16,2.775,others
Hf0.78W0.22,2.77,others
Ta0.95Re0.05,2.77,others
Pb0.1902In0.05Sn0.7598Te1,2.77,others
Tl0.38In0.62,2.76,others
La0.95Nd0.05Pt1Si1,2.76,heavy-Fermion
Nb2Pd1S4Se1,2.76,others
W3P1,2.76,others
Pb0.19In0.05Sn0.76Te1,2.76,others
Sr1Pd2Si0.02Ge1.98,2.76,others
Y5Ir4Ge10,2.76,others
Zr1B2,2.75,others
Fe1S0.5Se0.5,2.75,others
Tl0.53Mg0.47,2.75,others
Mo4P3,2.75,others
Sc2Sr4Ni2As2O6,2.75,others
Nb1Sn1.17S3.17,2.75,others
Ta1S1.8Se0.2,2.75,others
Th1Ir0.1Si1.9,2.75,heavy-Fermion
Y1.9Dy0.1Fe3Si5,2.75,others
Zr1Mo2,2.743,others
Nb3Rh1,2.742333,others
Al0.964Ge0.036,2.74,others
Er0.5Lu4.5Ir4Si10,2.74,heavy-Fermion
La0.97Gd0.03Ru2,2.73,heavy-Fermion
Nb0.9Mo2.1Al1,2.73,others
Pt3Li2B1,2.728,others
Mg1Mo6S7,2.72,others
Pb1.14Nb1S3.14,2.72,others
Sr1Pd2Si0.04Ge1.96,2.72,others
Ir1Bi2,2.715,others
Ir1Cu0.07Te2,2.71,others
Ta1Cu0.1S2,2.71,others
Hf0.906Mo0.094,2.71,others
La1Ni1As1O1,2.71,others
La2.9451Gd0.0549In1,2.71,heavy-Fermion
Ca2Rb1Li0.62Nb3O10,2.705,others
Bi0.8Rh0.2,2.7,others
Ta2Bi1.08S5.08,2.7,others
Bi2.14O0.73S2F0.27,2.7,others
Ce1Pb1Bi3Te6,2.7,others
Ce1Te1.82,2.7,others
Pb1Bi3Cs1Te6,2.7,others
Cr0.2Co1.8Cu1S4,2.7,others
Rh1.95Cu1Sn0.05Se4,2.7,others
Nb1Ga0.1Se2,2.7,others
In0.95Te1,2.7,others
Y0.2La0.8,2.7,others
La1Pd1Sb2,2.7,heavy-Fermion
U6Mn0.67Ni0.33,2.7,heavy-Fermion
Nb0.375Rh0.625,2.7,others
Nb0.75Rh1.25,2.7,others
Au0.1Nb3Rh0.9,2.7,others
Tl0.94Pb0.06,2.7,others
Ir0.97Pd0.03Te2,2.7,others
Re1Ge2,2.7,others
W5Si3,2.7,others
Sr1Pd2Si0.1Ge1.9,2.7,others
Tc0.25Ti0.75,2.7,others
Th0.3Zr0.7,2.7,others
Ti0.36V0.54Al0.1,2.7,others
Ti0.96V0.04,2.7,others
Y1Ir1Si1,2.7,others
Y2Rh3Si5,2.7,others
Ir0.94Pt0.06Te2,2.69,others
La2.58Pr0.42S4,2.69,others
Re0.3Zr0.7,2.69,others
Ba1Ni2P2,2.686667,others