Formula,Tc,Materials_family
Y0.8Pr0.2Ba2Cu3O7.5,62.9,cuprate
Y1Ba2Cu3.96Mn0.04O8,62.8,cuprate
Y0.8Pr0.2Ba2Cu3O6.91,62.7,cuprate
Y1Ba1.7La0.3Cu4O7.8,62.7,cuprate
Y0.8Ca0.2Ba2Cu3O6.51,62.6,cuprate
Y0.8Pr0.2Ba2Cu3O7.3,62.6,cuprate
Y1Sr2Cu3O7.5,62.5,cuprate
Hg0.9Cr0.1Sr2Cu1O4,62.3,cuprate
Bi1.7Pb0.3Sr2Ca0.65Y0.35Cu1.94Zn0.06O8,62.1,cuprate
Yb0.9Ca0.1Ba1.6Sr0.4Cu3O6.89,62.1,cuprate
Dy1Ba2Cu2.94Zn0.06O6.9,62,cuprate
La0.75Ca0.15Pr0.1Ba1.5Sr0.5Cu3O6.845,62,cuprate
La1.5Ba1.1Ca0.4Cu3O7.082,62,cuprate
Pb0.5Ca1Sr2Y0.5Cu2O7,62,cuprate
Pb0.5Sr2Ca0.5Sm0.5Cu2.5O7,62,cuprate
Pb2Sr2Y0.5Ca0.5Cu3O8.1882,62,cuprate
Sr1.5Ba0.5Cu1F2O2,62,cuprate
Sr2Tm1Cu3O7.2,62,cuprate
Sr2Tm1Cu3O7.65,62,cuprate
Sr2Y1Cu3O7.45,62,cuprate
Sr2Y1Cu3O7.95,62,cuprate
Tl1Sr2Ca0.4Tb0.6Cu2O7,62,cuprate
Tl2Ba2Cu1O6.03,62,cuprate
Y0.75Ca0.25Ba2Cu2.75Ni0.25O6.77,62,cuprate
Y0.99Ba1.99Cu2.847Li0.153O6.4,62,cuprate
Y1Ba2.01Cu2.806Cr0.194O7.3,62,cuprate
Y1Ba2Cu2.4Fe0.6O7.453,62,cuprate
Y1Ba2Cu2.988Zn0.012O6.75,62,cuprate
Y1Ba2Cu3O6.71,61.966667,cuprate
Y1La0.2Ba1.8Cu3O7.16,61.7,cuprate
Y1Ba1.7La0.3Cu3O7.059,61.4,cuprate
Y1Ba1.8La0.2Cu3O6.9,61.4,cuprate
Y1Ba2Cu2.97Zn0.03O6.76,61.4,cuprate
Er0.7Pr0.3Ba2Cu3O7,61.1,cuprate
Ba1.6Sr0.4Yb0.65Ca0.35Cu2O6.4,61,cuprate
Ba1.6Sr0.4Yb0.85Ca0.15Cu3O6.6,61,cuprate
Lu0.7Pr0.3Ba1.7Sr0.3Cu3O6.89,61,cuprate
Ru1Sr2Gd0.9Ca0.1Cu2O8,61,cuprate
Sr1.5Ba0.5Y1Cu2.8Ga0.2O7.2,61,cuprate
Tl1Ba2Sr2Cu2C1O10,61,cuprate
Y0.75Ca0.25Ba2Cu2.75Co0.25O6.8,61,cuprate
Y0.8Ca0.2Ba2Cu3O6.49,61,cuprate
Y1Ba1.87La0.13Cu4O8,61,cuprate
Y1Ba1.9La0.1Cu4O8,61,cuprate
Bi2Sr2Ca0.7Pr0.3Cu2O8.299,60.8,cuprate
Y1Ba2Cu2.94Zn0.06O6.84,60.8,cuprate
Bi1.7Pb0.3Sr2Ca0.75Y0.25Cu1.94Zn0.06O8,60.6,cuprate
Y0.7Pr0.3Ba2Cu3O6.942,60.6,cuprate
Y1Ba2Cu3O6.59,60.55,cuprate
Ca0.9Ce0.1Ba1La1Cu3O7.02,60.5,cuprate
Nd1Ba2Cu3O6.23,60.5,cuprate
Y0.6Pr0.4Ba1Sr1Cu3O6.9,60.5,cuprate
Y1Ba2Cu3O6.666,60.5,cuprate
C0.57Sr2Ca0.7Y0.3Cu2.33O6.78,60.3,cuprate
Y1Ba1.8La0.2Cu4O7.9,60.1,cuprate
Ba1.6Sr0.4Yb1Cu3O6.75,60,cuprate
Bi1.6Pb0.4Sr2Cu3Ca2O10.08,60,cuprate
C0.55Sr2.03Ca0.62Y0.35Cu2.35O6.79,60,cuprate
Ca0.4Ba1.25La1.25Cu3O7.05,60,cuprate
Ca1La1Ba1Cu2.97Zn0.03O7,60,cuprate
Fe0.5Ba1Sr1Y1Cu2.5O7.35,60,cuprate
Fe0.5Ba2Eu1Cu2.5O7.51,60,cuprate
Fe0.5Ba2Tm1Cu2.5O7.43,60,cuprate
Hg0.4Pr1.1Sr2Ca0.5Cu2O6.9,60,cuprate
La1.2Ba1.5Ca0.3Cu3O6.93,60,cuprate
La1.8Sr0.2Ca1Cu2O5.98,60,cuprate
La1.9Yb0.3Ba1.9Ca0.6Cu5O11.797,60,cuprate
La1Ba0.8Ca1.2Cu3O7.11,60,cuprate
Pb0.5Sr2Ca0.5Eu0.5Cu2.5O7,60,cuprate
Pb0.5Sr2Ca0.5Gd0.5Cu2.5O7,60,cuprate
Pb0.5Sr2Ca0.5Nd0.5Cu2.5O7,60,cuprate
Sr1.6Ba0.4Cu1F2O2,60,cuprate
Tl1.2Sr2Ca0.8Cu2O6.862,60,cuprate
Tl1Sr2Ca0.4Gd0.6Cu2O7,60,cuprate
Tm1.4Pr0.6Ba4Cu7O14.667,60,cuprate
Y0.9Ca0.1Ba1.5La0.5Cu3O7.13,60,cuprate
Y1Ba2Cu2.3Fe0.7O7.484,60,cuprate
Y1Ba2Cu2.91Fe0.09O6.83,60,cuprate
Y1Ba2Cu2.95Zn0.05O6.8,60,cuprate
Y1Ba2Cu2.994Zn0.006O6.63,60,cuprate
Y2Ba4Cu7O14.53,60,cuprate
Y2Ba4Cu7O14.68,60,cuprate
Y2La0.6Ba3.4Cu6O14.02,60,cuprate
La0.8Pr0.2Ba2Cu3O7,59.8,cuprate
Sm1Ba2Cu3O6.709,59.8,cuprate
Y0.8Pr0.2Ba2Cu3O7.4,59.8,cuprate
Ca0.2Ba1.55La1.25Cu3O7.11,59.7,cuprate
Y1Ba2Cu3O6.61,59.626,cuprate
Y1Ba2Cu3O6.64,59.533333,cuprate
Y1Ba2Cu3O6.546,59.4,cuprate
Y1Ba2Cu3O6.602,59.4,cuprate
Y0.7Pr0.3Ba2Cu3O6.97,59.3,cuprate
Gd0.85Mo0.15Ba2Cu3O6.855,59.2,cuprate
Pb2Sr2Ho0.5Ca0.5Cu2.97Al0.03O8,59.1,cuprate
Hg1Ba2Cu1O4.34,59,cuprate
La0.25Dy0.75Ba1Ca1Cu3O7,59,cuprate
La3Ca0.5Cd0.5Ba3Cu7O16.375,59,cuprate
Pb2Sr2Eu0.95Ca0.05Cu3O8.1,59,cuprate
Sm1Ba2Cu2.94Zn0.06O6.85,59,cuprate
Y0.7Ca0.3Ba2Cu2.7Co0.3O6.78,59,cuprate
Y0.85Pr0.15Ba2Cu3O6.8,59,cuprate
Y1Ba1.6La0.4Cu3O7.04,59,cuprate
Y1Ba2Cu0.97Zn0.03O7.95,59,cuprate
Y1Ba2Cu3O6.556,58.95,cuprate
Y1Ba2Cu2.8Fe0.2O6.9,58.8,cuprate
Fe0.5Sr1Ba1Y1Cu2.5O7,58.5,cuprate
Sr2Tm1Cu3O7.48,58.5,cuprate
Y1Ba1Sr1Cu3O6.83,58.5,cuprate
Y1Ba2Cu3O6.516,58.2,cuprate
Bi2Sr2Ca1Cu2I1O8,58,cuprate
Dy1Ba2Cu2.8Fe0.2O6.93,58,cuprate
Eu1.4Pr0.6Ba4Cu7O14.632,58,cuprate
La1.9Gd1.1Ca1Ba2.4Sr0.6Cu6.58In0.42O16.554,58,cuprate
La2.5Y0.5Ca1Ba3Cu6.44Fe0.56O16.617,58,cuprate
Lu0.7Ca0.3Ba2Cu3O6.15,58,cuprate
Sr1.75Ba0.25Cu1F2O2,58,cuprate
Tl1Sr2Ca0.8Pr0.2Cu2O7,58,cuprate
Tl2Ba2Cu1O5.94,58,cuprate
Y1Ba2Cu2.775Co0.225O6.99,58,cuprate
Y1Ba2Cu2.97Zn0.03O6.75,58,cuprate
Y1Ba2Cu4Li0.125O8,58,cuprate
Y1Ba2Cu4Li0.25O8,58,cuprate
Y1Sr2Cu2.7Ti0.3O7,58,cuprate
Eu0.8Pr0.2Ba2Cu3O6.97,57.9,cuprate
Y0.9Ca0.1Ba1.5La0.5Cu3O7.19,57.9,cuprate
Y1Ba1.9La0.1Cu3O6.8,57.9,cuprate
Y1Ba2Cu2.982Zn0.018O6.75,57.8,cuprate
Gd0.8Pr0.2Ba2Cu3O7,57.7,cuprate
La1.5Pr0.5Ca1Ba2Cu5O11.782,57.7,cuprate
Y1Ba2Cu2.8Fe0.2O6.85,57.7,cuprate
Y1Ba2Cu3O6.829,57.7,cuprate
Y0.8Pr0.2Ba2Cu3O7.1,57.6,cuprate
Y0.85Ca0.15Ba2Cu2.85Co0.15O6.78,57.5,cuprate
Y0.9Ca0.1Ba2Cu2.9Co0.1O6.76,57.5,cuprate
Y1La0.3Ba1.7Cu3O7,57.45,cuprate
Y0.7Pr0.3Ba2Cu3O6.98,57.4,cuprate
La1.25Ba1.65Ca0.1Cu3O7.15,57.3,cuprate
Nd0.95Pr0.05Ba2Cu3O6.85,57.2,cuprate
Ca0.1La1.15Ba1.75Cu3O7.148,57.1,cuprate
La0.7Pr0.3Ba2Cu3O7,57.1,cuprate
La1Ba1.5Sr0.5Cu3O6.948,57.1,cuprate
Bi2Sr2Ca0.6Pr0.4Cu2O8.316,57,cuprate
Ca0.1La0.35Ba1.65Cu3O7.15,57,cuprate
Ca0.4La1.25Ba1.35Cu3O7.055,57,cuprate
Cu2C0.5Ca3O6.6,57,cuprate
La1Ba1Cu2.94Co0.06O7,57,cuprate
La1Ba1Sr1Cu3O6.94,57,cuprate
Y0.7Pr0.3Ba2Cu3O6.96,57,cuprate
Y1Ba2Cu2.844Fe0.156O7,57,cuprate
Y1Ba2Cu2.9Zn0.1O6.94,56.95,cuprate
Y0.7Pr0.3Ba2Cu3O7,56.8925,cuprate
Y1Ba2Cu3.956Zn0.044O8,56.8,cuprate
Y1Ba2Cu3O6.729,56.8,cuprate
Ba1.8Sr0.2Yb1Cu3O6.61,56.7,cuprate
Bi2Sr2Ca1Cu2I0.4O8.242,56.7,cuprate
C0.54Sr2Ca0.6Y0.4Cu2.38O6.89,56.7,cuprate
Lu0.6Pr0.4Ba2Cu3O7,56.55,cuprate
Bi1.8Ga0.2Sr1.8Ca1.2Cu2O8,56.5,cuprate
Gd0.8Th0.2Fe1As1O1,56.5,iron-based
Sm1.2Ba1.8Cu3O7.01,56.5,cuprate
Sm1Ba1.9Pr0.1Cu3O6.99,56.4,cuprate
Bi2Sr2Ca1Cu2I0.61O8.21,56.3,cuprate
Y0.8Pr0.2Ba2Cu3O6.8,56.1,cuprate
Y0.9Pr0.1Ba2Cu3O6.65,56.1,cuprate
Y1Ba2Cu3O6.57,56.1,cuprate
La0.75Dy0.25Ba1Ca1Cu3O7,56,cuprate
La0.8Ca0.1Pr0.1Ba1.5Sr0.5Cu3O6.856,56,cuprate
Nd1.8Pr0.2Ba4Cu7O14.587,56,cuprate
Nd1Ba2Cu3S1O5,56,cuprate
Sr1.5Ba0.5Y1Cu2.8Ga0.2O7.14,56,cuprate
Sr2Tm1Cu3O7.28,56,cuprate
Tl2Ba2Cu1O5.943,56,cuprate
Y0.6Ca0.4Sr1.6Ba0.4Cu2Ga1O7,56,cuprate
Y1Ba1.66La0.34Cu3O7.073,56,cuprate
Y1Ba2Cu2.91Zn0.09O6.95,56,cuprate
Y1Ba2Cu2.982Zn0.018O6.78,56,cuprate
Y1Sr2Cu2.675Ti0.325O7.1,56,cuprate
Gd1Ba1.85Pr0.15Cu3O7.09,55.8,cuprate
Er0.7Ca0.3Ba2Cu3O6.83,55.7,cuprate
Gd1H0.1Fe1As1O0.9,55.6,iron-based
Y0.85Ca0.15Sr0.5Ba1.5Cu2.5B0.5O7,55.6,cuprate
Y1Ba2Cu2.74Fe0.26O7,55.6,cuprate
Y1Ba1.5La0.5Cu3O7.17,55.55,cuprate
Bi2Sr2Ca1Cu2I0.86O8.242,55.5,cuprate
Y0.8Ca0.2Ba2Cu2.8Co0.2O6.78,55.5,cuprate
Eu1Ba2Cu2.8Co0.2O6.98,55.3,cuprate
Sm1H0.19Fe1As1O0.81,55.3,iron-based
Tl1Sr1.65Th0.35Ca1Cu2O7,55.3,cuprate
Tl1Sr2Ca0.65Th0.35Cu2O7,55.3,cuprate
Y1Ba2Cu2.9Co0.1O6.89,55.3,cuprate
Y0.6Pr0.4Ba2Cu4O8,55.25,cuprate
Ba1.6Sr0.4Yb0.95Ca0.05Cu3O6.58,55,cuprate
Bi0.3Pb0.3La1.2Sr1.2Cu2O5.81,55,cuprate
Bi1.6Sr0.4Yb1Cu3O6.817,55,cuprate
Bi2Sr2Ca0.55Y0.45Cu2I1O8,55,cuprate
Ca1La1Ba1Cu2.85Zn0.045O7,55,cuprate
Er1Ba2Cu2.85Zn0.15O7,55,cuprate
Er1Ba2Cu3O6.31,55,cuprate
La0.5Dy0.5Ba1Ca1Cu3O7,55,cuprate
La0.75Nd0.25Ba1Ca1Cu3O7,55,cuprate
La1.5Ba1.1Ca0.4Cu3O7.05,55,cuprate
La1.82Ca1.18Cu2O6,55,cuprate
La3.1Y0.2Ca0.4Ba3.3Cu7O16.529,55,cuprate
Pb0.5Ca1Sr2Y0.5Cu2O6.97,55,cuprate
Sm1Fe1As1O0.6F0.6,55,iron-based
Sm1Fe1As1O0.67,55,iron-based
Sm1Fe1As1O0.85,55,iron-based
Tl1Sr1.5Ca0.5Yb1Cu2O7,55,cuprate
Tl1Sr1.7Ca0.3Yb1Cu2O7,55,cuprate
Y0.7Pr0.3Ba2Cu3O6.965,55,cuprate
Y1Ba1.85Cu2.85Co0.15O6.94,55,cuprate
Y1Ba2Cu2.91Zn0.09O6.93,55,cuprate
Y1Ba2Cu2.94Zn0.06O6.83,55,cuprate
Y1Ba2Cu2.9Ni0.1O6.87,55,cuprate
Y1Ba2Cu2.9Zn0.1O6.81,55,cuprate
Y1Ba2Cu3F1.26O6,55,cuprate
Y1Ba2Cu3F1.46O6,55,cuprate
Y1Sr2Cu2.8Re0.2O7,55,cuprate
Yb0.65Pr0.35Ba1.7Sr0.3Cu3O6.95,55,cuprate
Y0.74Ca0.16Sr1.6Ba0.5Cu2.78S0.22O7,54.9,cuprate
Y0.9Zn0.1Ba2Cu3O7,54.9,cuprate
Sm1H0.25Fe1As1O0.75,54.85,iron-based
Bi1.8Pb0.2Sr2Ca1Cu1.98Fe0.02O8,54.8,cuprate
La0.6Pr0.4Ba2Cu3O7,54.8,cuprate
Y1Ba2Cu2.8Zn0.2O6.88,54.7,cuprate
Nd0.9Ca0.1Ba0.6La0.4Cu3O6.7,54.5,cuprate
Y1Ba1.9La0.1Cu3O6.7,54.5,cuprate
Y1Ba2Cu2.9Ni0.1O6.85,54.5,cuprate
Bi1.7Pb0.3Sr2Ca0.8Y0.2Cu1.94Zn0.06O8,54.4,cuprate
Y1Ba2Cu3.84Co0.16O8,54.3,cuprate
C0.53Sr1.99Ca0.56Y0.45Cu2.39O6.94,54.2,cuprate
Sm1H0.12Fe1As1O0.77,54.2,iron-based
La1Ba1.25Sr0.75Cu3O6.996,54.1,cuprate
Y2Ba4Cu7O14.81,54.1,cuprate
Bi1.6Pb0.4Sr6Cu3C2O16,54,cuprate
Nd0.6Ca0.4Fe1As1F1,54,iron-based
Er0.52Ca0.48Ba1.4Sr0.6Cu2.76Co0.24O6.77,54,cuprate
Eu0.7Sr0.3Ba1.6Pr0.1Cu3O6.91,54,cuprate
La1.6Pr0.4Ca0.8Ba2Cu4.8O11.1064,54,cuprate
La1.8Sr0.2Ca1Cu2O5.96,54,cuprate
La1Ba1.5Sr0.5Cu3O6.902,54,cuprate
Lu0.7Ca0.3Ba2Cu3O6.78,54,cuprate
Lu1Ba1Sr1Cu3O6.94,54,cuprate
Nd1.1Ba1.5Ca0.4Cu3O6.864,54,cuprate
Sr1.9Ba0.1Cu1F2O2,54,cuprate
Y1Ba2Cu2.841Co0.159O6.8,54,cuprate
Dy0.7Pr0.3Ba2Cu3O6.9,53.9,cuprate
Y0.8Ca0.2Sr1.6Ba0.4Cu2.7Ga0.3O7,53.9,cuprate
Eu0.7Pr0.3Ba2Cu3O7,53.8,cuprate
Nd1Fe1As1O0.7,53.7,iron-based
Gd1Fe1As1O0.7,53.6,iron-based
Hg0.2Cr0.8Sr2Cu1O4,53.6,cuprate
Y0.4Ca0.3Pr0.3Ba2Cu3O7.02,53.6,cuprate
Bi1.7Pb0.3Sr2Ca0.6Y0.4Cu1.94Zn0.06O8,53.5,cuprate
Fe1Sr2Y1Cu2O7.51,53.5,cuprate
Gd0.93Ca0.07Ba1Sr1Cu3O6.8804,53.5,cuprate
Gd1Fe1As1O0.85,53.5,iron-based
Nd1Fe1As1O0.6,53.5,iron-based
Sm0.5Sr0.5Fe1As1F1,53.5,iron-based
Tl0.5Bi0.5Sr4Cu2C1O10,53.5,cuprate
Y0.25Cd0.75Ba2Cu3O7,53.2,cuprate
Bi2Sr2Ca1Cu2I0.69O8.242,53.1,cuprate
Gd0.8Pr0.2Ba2Cu3O6.95,53.1,cuprate
Y1La1.6Ba3.4Cu6O14.38,53.1,cuprate
Ba1.6Sr0.4Yb0.6Ca0.4Cu3O6.25,53,cuprate
Bi2Sr2Ca1Cu2I1O8.242,53,cuprate
Fe1Sr2Y1Cu2O7.68,53,cuprate
Hg0.7Cr0.3Sr2Cu1O4.6,53,cuprate
Hg1Ba2Cu0.97Zn0.03O4.043,53,cuprate
Nd1Ba2Cu2.95Ga0.05O6.59,53,cuprate
Nd1Fe1As1O0.825F0.175,53,iron-based
Sm0.65Th0.35Fe1As1O1,53,iron-based
Tl0.5Pb0.5Sr2Ca1Cu2.95Co0.05O7,53,cuprate
Tl2Ba2Cu1O5.963,53,cuprate
Y0.6Pr0.4Ba1Sr1Cu3O6.89,53,cuprate
Y0.7Ca0.3Ba2Cu2.55Co0.45O6.84,53,cuprate
Y1Ba2Cu2.745Fe0.255O7.08,53,cuprate
Y1Ba2Cu2.84Fe0.16O6.959,53,cuprate
Y1Ba2Cu2.88Zn0.12O6.92,53,cuprate
Y1Ba2Cu2.8Co0.2O6.83,53,cuprate
Y1Ba2Cu2.8Co0.2O7.04,53,cuprate
Y1Sr2Cu2.65Ti0.35O7.1,53,cuprate
Y1Sr2Cu2.85Re0.15O7,53,cuprate
Y0.85Pr0.15Ba2Cu3O6.65,52.9,cuprate
Ca0.4Ba1.15La1.45Cu3O7.23,52.8,cuprate
Nd1Ba2Cu3O6.75,52.8,cuprate
Tl1Sr2Ca0.8Y0.2Cu2O7,52.75,cuprate
Nd1.25Ba1.75Cu3O6.99,52.7,cuprate
Y1Ba2Cu2.95Fe0.05O6.73,52.7,cuprate
Y0.8Ca0.2Ba2Cu3O6.4,52.6,cuprate
Y1Ba2Cu3.9Ni0.1O8,52.6,cuprate
Y1La0.3Ba1.7Cu4O8,52.6,cuprate
Cd1Tl0.7Ba1Cu1O4.5,52.5,cuprate
Fe0.5Ba1Sr1Y1Cu2.5O7.424,52.5,cuprate
Gd0.8Mo0.2Ba2Cu3O6.807,52.5,cuprate
Tl1Sr2Ca0.75Th0.25Cu2O7,52.5,cuprate
Ca0.85Ce0.15Ba1La1Cu3O7.07,52.4,cuprate
Y1Ba2Cu2.5Ni0.5O7,52.3,cuprate
Y0.9Pr0.1Ba2Cu3O6.75,52.2,cuprate
Sm1Fe1As1O0.7,52.1,iron-based
Er1Ba2Cu2.88Zn0.12O6.92,52,cuprate
Eu1.2Pr0.8Ba4Cu7O14.788,52,cuprate
Eu1Ba2Cu2.9Ga0.1O6.74,52,cuprate
Fe1Sr2Er1Cu2O7.5,52,cuprate
La0.8Pr0.2Ba1Ca1Cu3O7,52,cuprate
La1.3Ba1.5Ca0.2Cu3O6.94,52,cuprate
La2.2Ba3.8Cu6O13.86,52,cuprate
Lu0.65Pr0.35Ba1.7Sr0.3Cu3O6.93,52,cuprate
Lu0.8Ca0.2Ba2Cu3O6.81,52,cuprate
Sr1.5Ba0.5Y1Cu2.8Ti0.2O7.08,52,cuprate
Tb0.8Th0.2Fe1As1O1,52,iron-based
Tl1Sr2Ca1Cu2O6.61,52,cuprate
Y0.6Pr0.4Ba1.2Sr0.8Cu3O6.89,52,cuprate
Y1Ba1.6La0.4Cu3O7.05,52,cuprate
Y1Ba1.6La0.4Cu3O7.06,52,cuprate
Pb2Sr2Ho0.5Ca0.5Cu2.94Al0.06O8,51.8,cuprate
Sm1H0.34Fe1As1O0.64,51.8,iron-based
La0.5Pr0.5Ba2Cu3O7,51.7,cuprate
Y0.8Pr0.2Ba2Cu3O6.65,51.7,cuprate
Tl1Sr1.75Th0.25Ca1Cu2O7,51.6,cuprate
La1.77Sr0.23Ca1Cu2O6.03,51.5,cuprate
Y1Ba2Cu2.9Zn0.1O7,51.5,cuprate
Nd1Fe1As1O0.85,51.45,iron-based
Sm0.9Th0.1Fe1As1O1,51.4,iron-based
Sm1H0.3Fe1As1O0.6,51.4,iron-based
Y1Ba1.8La0.2Cu3O6.85,51.4,cuprate
Ba1.6Sr0.4Yb0.65Ca0.35Cu3O6.28,51,cuprate
Dy1Fe1As1O0.85,51,iron-based
Eu0.8Sr0.2Ba1.6Pr0.1Cu3O6.78,51,cuprate
Ga1Sr2Tm0.6Ca0.4Cu2O7,51,cuprate
La1.4Ba1.5Ca0.1Cu3O6.982,51,cuprate
La1.8Sr0.2Ca1Cu2O6.03,51,cuprate
La2.5Y0.5Ca1Ba3Cu6.3Fe0.7O16.627,51,cuprate
Nd1.2Ba1.6Ca0.2Cu3O6.929,51,cuprate
Y0.76Ca0.24Ba2Cu2.55Co0.45O6.93,51,cuprate
Y0.76Ca0.34Ba2Cu2.55Co0.45O6.95,51,cuprate
Y1Ba2Cu2.72Ni0.28O7,51,cuprate
Y1Ba2Cu2.85Fe0.15O7,51,cuprate
Y1Ba2Cu2.88Al0.12O7,51,cuprate
Y1Sr0.8Ba1.2Cu2.5B0.5O7,51,cuprate
Y1Sr2Cu2.75W0.25O7.1,51,cuprate
Y1Sr2Cu2.7Fe0.3O7.1,51,cuprate
Bi1.8Pb0.2Sr2Ca1Cu1.96Co0.04O8,50.7,cuprate
Y1Ba2Cu2.76Co0.24O6.999,50.7,cuprate
Bi2Sr2Ca2Cu2I0.86O8.21,50.6,cuprate
Y1Ba1.9La0.1Cu3O6.6,50.6,cuprate
Y1Ba2Cu2.9Fe0.1O6.8,50.55,cuprate
Nd1Fe1As1O0.9F0.1,50.525,iron-based
Tb1Fe1As1O0.9F0.1,50.5,iron-based
Y0.5Pr0.5Ba2Cu4O8,50.5,cuprate
Yb0.6Pr0.4Ba2Cu3O6.91,50.5,cuprate
Tm0.6Pr0.4Ba2Cu3O6.95,50.3,cuprate
La1.25Ca0.2Ba1.55Cu3O7.082,50.2,cuprate
La1.1Ba1.4Sr0.5Cu3O6.954,50.1,cuprate
Y1Ba2Cu3.96Zn0.06O8,50.1,cuprate
Y1Ba2Cu2.9Zn0.1O6.85,50.08,cuprate
Sm1.27Ba1.73Cu3O7.05,50.05,cuprate
Nd0.8Ba0.2Fe1As1O0.6F0.4,50.03,iron-based
Ba1.6Sr0.4Yb0.65Ca0.35Cu3O6.04,50,cuprate
Bi0.2Pb0.3La1.3Sr1.2Cu2O5.78,50,cuprate
Pr0.6Ca0.4Fe1As1F1,50,iron-based
Cu3P0.5Sr2Ca1.7Y0.3O9.4,50,cuprate
Dy1Ba2Cu2.8Ga0.2O6.78,50,cuprate
Er1Ba2Cu2.82Zn0.18O6.91,50,cuprate
Er1Ba2Cu2.85Zn0.12Fe0.03O6.94,50,cuprate
Eu0.6Sr0.4Ba1.6Pr0.1Cu3O7.06,50,cuprate
Gd1Ba1.5Sr0.5Cu3O6.73,50,cuprate
Hg0.75Mo0.25Sr2Cu1O4,50,cuprate
Hg1.4Tl0.6Ba2Y0.8Ca0.2Cu2O7.83,50,cuprate
Hg1Ba2Cu1O6.932,50,cuprate
La0.85Ca0.05Pr0.1Ba1.5Sr0.5Cu3O6.865,50,cuprate
La1.3Ba1.4Sr0.3Cu3O6.91,50,cuprate
La1.5Ba1Ca0.5Cu3O6.981,50,cuprate
La1.5Nd0.5Ca1Ba2Cu4.5Mo0.5O11.119,50,cuprate
Nd0.8Pr0.2Ba2Cu3O6.81,50,cuprate
Nd1.2Ba1.8Cu3O6.954,50,cuprate
Nd1Fe1As1O0.88F0.12,50,iron-based
Pb0.5Ca1Sr2Y0.5Cu2O6.95,50,cuprate
Pr1Fe1As1O0.775F0.225,50,iron-based
Sm1H0.22Fe1As1O0.78,50,iron-based
Sr0.8Ba1.2Cu1O3.35,50,cuprate
Sr1.5Ba0.5Y1Cu2.8Ga0.2O7.1,50,cuprate
Tl0.5Pb0.5Sr2Ca1Cu2.95Ni0.05O7,50,cuprate
Tl0.8V0.2Sr4Cu2C1O10,50,cuprate
Tl2Ba2Cu1O5.947,50,cuprate
Tm1.2Pr0.8Ba4Cu7O14.652,50,cuprate
Tm1Ba2Cu3O6.49,50,cuprate
Y0.6Ca0.4Sr1.7Ba0.3Cu2Ga1O7,50,cuprate
Y0.8Ca0.2Ba2Cu3O6.1,50,cuprate
Y0.9Ca0.1Ba2Cu2.9Zn0.1O6.81,50,cuprate
Y1Ba2Cu2.97Zn0.03O6.7,50,cuprate
Y1Ba2Cu3.8Co0.2O8,50,cuprate
Y2Ba4Cu7O14.38,50,cuprate
Nd1Ba1Sr1Cu3O7.02,49.9,cuprate
Y1Ba1.5Sr0.5Cu3O6.75,49.9,cuprate
Y1Ba2Cu2.88Zn0.12O7,49.806667,cuprate
Y1Ba1Sr1Cu2.8Sn0.2O7.12,49.8,cuprate
Pr1H0.6Fe1As1O0.6,49.7,iron-based
Nd1Fe1As1O0.82F0.18,49.666667,iron-based
Sm1Fe1As1O0.7F0.25,49.6,iron-based
Y1Ba1.6La0.4Cu3O7.083,49.4,cuprate
Bi2Sr2Ca1Cu2I0.98O8.21,49.3,cuprate
Y1Ba1.6La0.4Cu3O7.11,49.3,cuprate
Y1Ba1Sr1Cu2.8Sn0.2O7.122,49.3,cuprate
Ho1Fe1As1O0.85,49.1,iron-based
Nd1Fe1As1O0.89F0.11,49.05,iron-based
Ba1.6Sr0.4Yb0.65Ca0.35Cu3O6.15,49,cuprate
Pr0.125Ca0.875Fe2As2,49,iron-based
Ca1La1Ba1Cu2.97Fe0.03O7,49,cuprate
Pb0.5Cd0.5Sr1.5Ba0.5Ca0.5Y0.5Cu2O7,49,cuprate
Sm1Ba2Cu2.92Zn0.08O6.85,49,cuprate
Tl0.7Bi0.3Sr4Cu2C1O10,49,cuprate
Tl1.89Ba2Cu1.11O6.18,49,cuprate
Tl1Sr2Ba2Cu2C2.4N0.6O7,49,cuprate
Tl1Sr2Ba2Cu2C2.7N0.3O7,49,cuprate
Y0.6Pr0.4Ba0.6Sr1.4Cu3O6.89,49,cuprate
Y0.6Pr0.4Ba0.8Sr1.2Cu3O6.89,49,cuprate
Y1Ba2Cu2.8Fe0.2O6.93,49,cuprate
Y1Sr2Cu2.75Re0.25O7.3,49,cuprate
Ba1.6Sr0.4Yb1Cu3O6.69,48.9,cuprate
C0.51Sr2Ca0.5Y0.5Cu2.42O6.92,48.9,cuprate
Sm0.89Th0.11Fe1As1O1,48.9,iron-based
Y1La0.2Ba1.8Cu3O7.06,48.9,cuprate
Y1Ba1.9La0.1Cu3.972Zn0.028O8,48.7,cuprate
Bi1.8Pb0.2Sr2Ca1Cu1.94Co0.06O8,48.6,cuprate
Ca0.6Nd0.4Ba1La1Cu3O7.1,48.6,cuprate
Bi1.8Pb0.2Sr2Ca1Cu1.96Fe0.04O8,48.5,cuprate
La3Ca0.4Cd0.6Ba3Cu7O16.336,48.5,cuprate
Gd1Fe1As1O0.8F0.2,48.35,iron-based
Nd0.9Pr0.1Ba2Cu3O6.85,48.3,cuprate
Yb0.7Ca0.3Ba1.6Sr0.4Cu3O6.1,48.3,cuprate
Pr1Fe1As1O0.85,48.2,iron-based
Bi2Sr2Ca0.57Pr0.43Cu2O8,48,cuprate
Bi2Sr2Ca0.7Gd0.3Cu2O8,48,cuprate
Ce1H0.21Fe1As1O0.79,48,iron-based
Ce1H0.22Fe1As1O0.78,48,iron-based
Cu2Ba1.6Sr0.4Yb0.65Ca0.35O6.15,48,cuprate
Er0.64Ca0.36Ba1.4Sr0.6Cu2.76Co0.24O6.8,48,cuprate
Gd1.15Ba1.85Cu3O6.99,48,cuprate
Hg1Ba2Cu1O4.033,48,cuprate
La1.3Ba1.5Ca0.2Cu3O6.72,48,cuprate
La3.1Gd0.2Ca0.4Ba3.3Cu7O16.473,48,cuprate
Lu0.8Ca0.2Ba2Cu3O6.91,48,cuprate
Nd1.6Pr0.4Ba4Cu7O14.603,48,cuprate
Tl1Sr1.6Cr0.4Cu1O5,48,cuprate
Y1Ba2Cu2.95Zn0.05O6.75,48,cuprate
Y1Ba2Cu3H0.16O6.54,47.9,cuprate
Fe0.5Ba1Sr1Er1Cu2.5O7.439,47.8,cuprate
La1.75Ca1.25Cu2O5.99,47.7,cuprate
La1.7Pr0.3Ca0.6Ba2Cu4.6O10.8862,47.6,cuprate
Nd1.2Ba1.8Cu3O6.91,47.6,cuprate
Y1Ba2Cu2.85Zn0.15O6.85,47.6,cuprate
La1.85Sr0.15Ca1Cu2O6.03,47.5,cuprate
Nd1Fe1As1O0.94F0.06,47.5,iron-based
Y0.72Ca0.28Ba2Cu3O6,47.5,cuprate
Y0.7Pr0.3Ba2Cu3O6.88,47.5,cuprate
Y1Ba2Cu2.94Ni0.06O6.7,47.4,cuprate
Bi2Sr2Ca1Cu2O8.329,47.3,cuprate
Y1Ba2Cu3H0.31O6.54,47.3,cuprate
Y1Ba2Cu3.95Zn0.05O8,47.25,cuprate
Bi2Sr2Ca1Cu2O8.373,47.2,cuprate
La0.12Ca0.88Fe1As1.8Sb0.2,47.2,iron-based
Ce1D0.3Fe1As1O0.7,47.2,iron-based
Y1Ba1.8La0.2Cu3O6.8,47.2,cuprate
Y1Ba2Cu2.7Zn0.3O6.92,47.2,cuprate
Ca0.4Ba1.25La1.35Cu3O7.11,47.1,cuprate
Ba1.6Sr0.4Yb0.6Ca0.4Cu3O6.04,47,cuprate
Ba1.6Sr0.4Yb1Cu3O6.64,47,cuprate
C1Ca3Cu2O7.1,47,cuprate
Ca1Ba1La1Cu3O7,47,cuprate
Ce1Fe1As1O0.89F0.11,47,iron-based
Cu2C0.75Ca3O6.85,47,cuprate
Ga1Sr2Tm0.65Ca0.35Cu2O7,47,cuprate
La0.6Ca0.2Pr0.2Ba1.5Sr0.5Cu3O6.809,47,cuprate
La2.1Yb0.2Ba2.1Ca0.4Cu5O11.802,47,cuprate
Lu0.6Pr0.4Ba1.7Sr0.3Cu3O6.91,47,cuprate
Pb2Sr2Y0.85Ca0.15Cu3O8,47,cuprate
Sm0.9U0.1Fe1As1O1,47,iron-based
Sm1.2Ba1.8Cu3O6.965,47,cuprate
Sm1Ba2Cu2.8Fe0.2O6.96,47,cuprate
Tl2Ba2Cu1O6.05,47,cuprate
Y0.6Ca0.4Ba1.1La0.9Cu3O7.18,47,cuprate
Y0.6Pr0.4Ba1.8Sr0.2Cu3O6.85,47,cuprate
Y0.6Pr0.4Ba2Cu3O6.88,47,cuprate
Y1Ba2Cu2.94Fe0.06H0.4O7,47,cuprate
Y1Ba2Cu3.938Zn0.062O8,47,cuprate
Y1Sr0.6Ba1.4Cu2.5B0.5O7,47,cuprate
Nd1Fe1As1O0.9,46.9,iron-based
Sm1Fe1P0.05As0.95O0.88F0.12,46.8,iron-based
Nd1Ru0.02Fe0.98As1O0.89F0.11,46.6,iron-based
Ba1.6Sr0.4Yb0.6Ca0.4Cu3O6.14,46.5,cuprate
Bi4Sr3Ca2Tm1Cu4O16.73,46.5,cuprate
Ca0.3Ba1.45La1.25Cu3O7.05,46.4,cuprate
Pr1Fe1As1O0.846F0.154,46.4,iron-based
Sm1H0.4Fe1As1O0.6,46.4,iron-based
Pr1Fe1As1O0.7,46.25,iron-based
Ca0.2Ba1.55La1.25Cu3O7.07,46.1,cuprate
Ce1Fe1As1O0.7F0.3,46,iron-based
Er1Ba2Cu2.78Zn0.18Fe0.03O6.93,46,cuprate
Er1Ba2Cu2.85Zn0.06Fe0.09O6.96,46,cuprate
Er1Ba2Cu2.88Co0.12O6.78,46,cuprate
Eu1Ba1.8Pr0.2Cu3O6.69,46,cuprate
Hg0.5Fe0.5Sr2Y0.6Ca0.4Cu2O6.7,46,cuprate
Na1Fe2Se2,46,iron-based
Nd1Fe1As1O0.84F0.16,46,iron-based
Nd1Fe1As1O0.7F0.3,46,iron-based
Sm0.8U0.2Fe1As1O1,46,iron-based
Sr2Cu1F2.33O2,46,cuprate
Y0.7Pr0.3Ba2Cu3O6.65,46,cuprate
Y0.8Pr0.2Ba2Cu3.975Fe0.025O8,46,cuprate
Y1Ba2Cu0.95Zn0.05O7.95,46,cuprate
Y1Ba2Cu2.7Ni0.3O6.9,46,cuprate
Y1Ba2Cu2.82Co0.18O7,46,cuprate
Y1Sr2Cu2.65Fe0.35O7.1,46,cuprate
Y2La0.8Ba3.2Cu6O14.2,46,cuprate
Yb0.6Pr0.4Ba1.7Sr0.3Cu3O6.93,46,cuprate
Ca0.1Ba1.65La1.25Cu3O7.08,45.9,cuprate
Gd1H0.3Fe1As1O0.7,45.9,iron-based
Ce1H0.6Fe1As1O0.6,45.8,iron-based
Er0.6Pr0.4Ba2Cu3O7,45.8,cuprate
Nd0.95Pr0.05Ba2Cu3O6.75,45.8,cuprate
Sm1Fe0.99Ni0.01As1O0.88F0.12,45.7,iron-based
Ce1H0.2Fe1As1O0.8,45.6,iron-based
La1.25Ca0.15Ba1.6Cu3O7.052,45.6,cuprate
C0.5Sr2.01Ca0.44Y0.55Cu2.44O6.94,45.5,cuprate
La0.109Ca0.891Fe2As2,45.4,iron-based
Y1Ba2Cu3O6.51,45.4,cuprate
Pr0.142Ca0.858Fe2As2,45.3,iron-based
Tl2Ba2Cu1O6.19,45.3,cuprate
Fe0.5Ba1Sr1Ho1Cu2.5O7.462,45.2,cuprate
La1.3Ba1.3Sr0.4Cu3O6.928,45.2,cuprate
La1.85Sr0.15Cu1O4,45.2,cuprate
La2Cu1O4.086,45.2,cuprate
Y0.8Pr0.2Ba2Cu3O6.85,45.2,cuprate
Y1Fe1As1O0.85,45.2,iron-based
La1.2Ba1.3Sr0.5Cu3O6.943,45.1,cuprate
Y0.6Pr0.4Ba2Cu3O6.929,45.05,cuprate
Bi1.6Pb0.4Sr2Cu3Ca2O10.04,45,cuprate
Bi2Ca2.5Pr0.5Cu2O8.53,45,cuprate
Dy1Fe1As1O0.9F0.1,45,iron-based
Gd4Fe2As2O3.2Te0.92F0.8,45,iron-based
Hg0.8W0.2Ba2Cu1O4.4,45,cuprate
La0.65Ca0.15Pr0.2Ba1.5Sr0.5Cu3O6.84,45,cuprate
La1.3Ba1.5Ca0.2Cu3O6.92,45,cuprate
La1Ba1Ca1Cu2.9Ni0.1O6.85,45,cuprate
La1Ba2Cu2.9O6.8,45,cuprate
La1Ba2Cu2.9O6.82,45,cuprate
La2Cu1O4.075,45,cuprate
La2Cu1O4.093,45,cuprate
Lu0.7Ca0.3Ba2Cu3O6.88,45,cuprate
Nd1.2Ba1.6Sr0.2Cu3O6.885,45,cuprate
Pr1Fe1As1O0.89F0.11,45,iron-based
Ru1Sr2Gd1.4Ce0.6Cu2O10,45,cuprate
Sm0.8Ca0.2Ba2Cu2.8Zn0.2O6.87,45,cuprate
Sm1Fe1As1O0.82F0.18,45,iron-based
Sm1H0.43Fe1As1O0.57,45,iron-based
Tb0.9Th0.1Fe1As1O1,45,iron-based
Tl1Sr1.8Ca0.2Yb1Cu2O7,45,cuprate
Y0.6Pr0.4Ba1.4Sr0.6Cu3O6.83,45,cuprate
Y0.84Sr2.16Cu2.78S0.22O7,45,cuprate
Y0.8Ca0.2Sr1Ba1Cu2.8B0.2O7,45,cuprate
Y1Ba2Cu2.7Zn0.3O6.74,45,cuprate
Y1Ba2Cu2.865Al0.135O7,45,cuprate
Y1Ba2Cu2.87Al0.13O7,45,cuprate
Y1Ba2Cu2.8Ni0.2O6.82,45,cuprate
Y1Ba2Cu2.8Zn0.2O6.79,45,cuprate
Y1Ba2Cu2.91Zn0.09O6.83,45,cuprate
Y1Ba2Cu3F1.11O6,45,cuprate
Y1Ba2Cu3O6.46,45,cuprate
Y1Sr2Cu2.8W0.2O6.9,45,cuprate
Y2Tl2Sr2Cu3O11,45,cuprate
Sm1Ba2Cu3O6.73,44.95,cuprate
Ce1H0.3Fe1As1O0.7,44.9,iron-based