Formula,Tc,Materials_family
Bi1Ba0.65K0.35O2.984,27.9,others
La1Pt3Ca9Fe10As18,27.9,iron-based
Y0.23La0.77Mn0.005Fe0.995As1O0.89F0.11,27.9,iron-based
La1.85Sr0.15Cu0.986Ni0.014O4,27.9,cuprate
La1.76Sr0.2Ho0.04Cu1O4,27.85,cuprate
Nd1.4Cu1O4,27.85,cuprate
Ca1.6Na0.4Cu1Cl2O2,27.8,cuprate
Dy0.5Pr0.5Ba2Cu3O6.9,27.8,cuprate
La1Fe1As1O0.89,27.8,iron-based
Pb0.6Cu1Sr0.9La1.1O5.24,27.8,cuprate
Y0.6Pr0.4Ba2Cu3O6.85,27.8,cuprate
Y1Ba2Cu2.8Fe0.2O6.76,27.8,cuprate
Ca1.81Na0.19Cu1Cl2O2,27.7,cuprate
La1.85Sr0.15Cu0.985Ni0.015O4,27.7,cuprate
Y0.69Ca0.31Ba2Cu3O6,27.7,cuprate
Bi1Ba0.6K0.4O2.926,27.6,others
Bi2Sr1.6La0.4Cu1O6.307,27.6,cuprate
Ca1.7Na0.3Cu1Cl2O2,27.6,cuprate
Ce1Fe1As1O0.92F0.08,27.6,iron-based
Eu0.64K0.36Fe2As2,27.6,iron-based
Eu0.5Pr0.5Ba2Cu4O8,27.5,cuprate
La1.45Ca0.15Nd0.4Cu1O4,27.5,cuprate
La1.805Nd0.08Sr0.115Cu1O4,27.5,cuprate
La1Ru0.015Fe0.985As1O0.89F0.11,27.5,iron-based
Ir0.2Ba1Fe1.8As2,27.4,iron-based
La1Ru0.02Fe0.98As1O0.89F0.11,27.4,iron-based
Y0.7Pr0.3Ba2Cu3O6.85,27.4,cuprate
Sr1Fe2P0.78As1.22,27.35,iron-based
Bi1Ba0.575K0.425O3,27.3,others
Bi1Ba0.665K0.335O2.985,27.3,others
Mg1B1.5C0.5,27.25,others
H0.19La1.8Sr0.2Cu0.995Fe0.005O4,27.2,cuprate
La1.85Sr0.15Cu0.95Li0.05O4,27.2,cuprate
La1.89Ce0.11Cu1O4,27.1625,cuprate
Tl0.4K0.3Fe1.7Se2,27.125,iron-based
La1.65Nd0.2Ca0.122Ba0.028Cu1O3.99,27.1,cuprate
La1.65Nd0.2Ca0.122Ba0.028Cu1O4,27.1,cuprate
La1.85Sr0.15Cu0.992Al0.008O4,27.1,cuprate
Mg0.79B2Al0.21,27.1,others
Nd1Mn0.02Fe0.98As1O0.89F0.11,27.1,iron-based
Y0.5Pr0.5Ba2Cu3O6.68,27.1,cuprate
Ca1.82Na0.18Cu1Cl2O2,27.055,cuprate
La0.4Sr0.6Fe1As1F1,27.05,iron-based
Ir0.3Ba1Fe1.7As2,27,iron-based
Bi1.6Sr0.4Yb0.75Ca0.25Cu3O6.072,27,cuprate
Bi1.95Sr1.85La0.2Cu1O4,27,cuprate
Bi2Sr2Dy1.64Ce0.36Cu2O10.26,27,cuprate
Bi2Sr2Eu1.64Ce0.36Cu2O10.26,27,cuprate
Ca4Fe2Al2As2O5.785,27,iron-based
Rb2K1C60,27,others
La0.55Ca0.15Pr0.3Ba1.5Sr0.5Cu3O6.851,27,cuprate
La0.95Pr0.85Sr0.2Cu1O4,27,cuprate
La1.2Ba1.5Ca0.3Cu3O6.72,27,cuprate
La1.2Ba1.8Cu3O7.2,27,cuprate
La1.2Ba1.8Cu3O7.3,27,cuprate
La1.775Nd0.1Sr0.125Cu1O4,27,cuprate
La1.785Nd0.1Sr0.115Cu1O4,27,cuprate
La1.85Sr0.06Ca0.05Ba0.04Cu1O4,27,cuprate
La1.888Sr0.112Cu1O4,27,cuprate
La1.8Sr0.2Cu0.9928Zn0.0072O4,27,cuprate
La1Fe1P0.4As0.6O0.9F0.1,27,iron-based
Nd2Cu1F0.24O3.76,27,cuprate
Pr0.88La1Ce0.12Cu1O3.908,27,cuprate
Sr1Fe2P0.8As1.2,27,iron-based
Tl1Sr1.2La0.8Cu1O5,27,cuprate
Y0.65Ca0.35Sr2Cu2Ga1O6.99,27,cuprate
Y0.65Ca0.35Sr2Cu2Ga1O7,27,cuprate
Y1Sr2Cu2.7Co0.3O6.7,27,cuprate
Y1Sr2Nb0.9Cu2.1O7.9,27,cuprate
Ca1.8Na0.2Cu1Cl2O2,26.95,cuprate
Ca1.76Na0.24Cu1Cl2O2,26.9,cuprate
Pr1.23Pt3Ca8.77Fe10As18,26.9,iron-based
La1.5Ba1Sr0.5Cu3O6.955,26.9,cuprate
La1.836Sr0.164Cu0.99Ga0.01O4,26.9,cuprate
La1.83Ba0.17Cu1O4,26.9,cuprate
Sm1Fe1As1O0.86F0.14,26.9,iron-based
Ca4Fe2Al2As2O5.65,26.8,iron-based
La1.75Sr0.25Cu1H0.1O4,26.8,cuprate
Ba0.5K0.5Fe1.9Ni0.1As2,26.75,iron-based
La1.8Nd0.2Cu1O4.059,26.7,cuprate
Nd0.95Pr0.05Ba2Cu3O6.65,26.7,cuprate
Bi1.95Sr1.65La0.4Cu1O6.343,26.5,cuprate
La0.21Ca0.79Fe1As2,26.5,iron-based
Ca1.75Na0.25Cu1Cl2O2,26.5,cuprate
Pt4.054Ca10Fe9.7As18,26.5,iron-based
La1.81Sr0.19Cu0.99Ru0.01O4,26.5,cuprate
La1.834Sr0.166Cu0.99Zn0.01O4,26.5,cuprate
La1.83Sr0.17Cu0.94Fe0.06O4,26.5,cuprate
La1.885Sr0.115Cu0.965Li0.035O4,26.5,cuprate
Nd1.45Ba1.55Cu3O7.08,26.5,cuprate
Sm1Ba1.8Pr0.2Cu3O7.04,26.5,cuprate
Sr2Cu1C0.91B0.09O5,26.5,cuprate
La1.87Sr0.13Cu0.995Zn0.005O4,26.44,cuprate
Pr0.01Bi0.99Ba0.6K0.4O3,26.4,others
Ca0.1Ba1.65La1.25Cu3O7.02,26.4,cuprate
La1.81Sr0.19Cu0.94Ni0.06O4,26.4,cuprate
La1.87Sr0.125Cu1.07O4,26.4,cuprate
La1Fe1As1O0.89F0.11,26.346667,iron-based
La1.73Nd0.12Sr0.15Cu1O4,26.3,cuprate
La1.895Sr0.105Cu1O4,26.3,cuprate
La1.8Nd0.2Cu1O4.04,26.3,cuprate
La1.85Sr0.15Cu0.993Fe0.007O4,26.25,cuprate
Rb0.8Fe2Se1.9Te0.1,26.25,iron-based
Tl0.4K0.3Fe2Se2,26.25,iron-based
Sm0.71Pt3Ca9.29Fe10As18,26.2,iron-based
La1.825Ba0.175Cu1O4,26.2,cuprate
Sm1.35Ba1.65Cu3O7.07,26.2,cuprate
Sr2Mg0.5Ti0.5Fe0.95Co0.05As1O3,26.2,iron-based
Y0.5Pr0.5Sr2Cu2.85Re0.15O7,26.2,cuprate
Y1Ba2Cu2.95Fe0.05O6.6,26.2,cuprate
Y0.2La0.8Mn0.005Fe0.995As1O0.89F0.11,26.15,iron-based
Bi1.8Pb0.2Sr2Ca1Cu1.84Fe0.16O8,26.1,cuprate
La1.45Pt3Ca8.55Fe10As18,26.1,iron-based
La1.85Sr0.15Cu0.96Ti0.04O4,26.1,cuprate
Gd1Sr2Ru0.95Cu2.05O8,26.05,cuprate
Ba0.76K0.24Fe2As2,26,iron-based
Ba1Cs1Fe4As4,26,iron-based
Bi1.95Sr1.85Nd0.2Cu1O4,26,cuprate
Bi1Pb1Sr1.26La0.26Cu1O6,26,cuprate
Pr0.18Ca0.82Fe1As1.98Sb0.02,26,iron-based
Ca1.808Cu0.904Cl1.904Na0.096O2.192,26,cuprate
Ca1.825Na0.175Cu1Cl2O2,26,cuprate
Ca1.883Cu0.941Cl1.941Na0.059O2.117,26,cuprate
La2.38Pt3Ca7.62Fe10As18,26,iron-based
Eu0.7Ca0.3Ba2Cu3O6.13,26,cuprate
Eu1Fe2P0.54As1.46,26,others
Sr4Mg0.8Ti1.2Fe2As2O6,26,iron-based
H0.55La1.8Sr0.2Cu0.995Fe0.005O4,26,cuprate
La0.6Ca0.1Pr0.3Ba1.5Sr0.5Cu3O6.872,26,cuprate
La1.35Ca0.15Nd0.5Cu1O4,26,cuprate
La1.765Nd0.125Sr0.11Cu1O4,26,cuprate
La1.775Nd0.125Sr0.1Cu1O4,26,cuprate
La1.845Ba0.155Cu1O4,26,cuprate
La1.903Ba0.097Cu1O4,26,cuprate
La1.985Sr0.015Cu1O4.032,26,cuprate
La1Fe1As1O0.95F0.05,26,iron-based
La1Fe1P0.2As0.8O0.9F0.1,26,iron-based
La2.6Ba3.4Cu6O14.06,26,cuprate
Hf1Li0.5N1Cl1,26,others
Mo1Sr2Y0.8Ca0.2Cu2O8,26,cuprate
Na0.86Fe1As1,26,iron-based
Nd0.75Pr0.25Ba1Ca1Cu3O7,26,cuprate
Pr0.89La1Ce0.11Cu1O3.98,26,cuprate
Ru0.92Ce0.58Sr1.7Eu1.8Cu2O10,26,cuprate
Sm0.8Pr0.2Ba2Cu3O6.85,26,cuprate
Sm1La0.8Sr0.2Cu1O3.945,26,cuprate
Sr1.5Ba0.5Y1Cu2.8Mo0.2O7.03,26,cuprate
Tl1.75Ba2Cu1.2O5.98,26,cuprate
Tl1Sr0.4Ca0.6La1Cu1O5,26,cuprate
Y0.6Pr0.4Ba2Cu3O6.61,26,cuprate
Y1Ba2Cu2.68Fe0.32O6.999,26,cuprate
Y1Ba2Cu2.94Li0.06O6.6,26,cuprate
Y1Ba2Cu3O6.409,26,cuprate
Y1Sr2Cu2.7Ti0.3O6.7,26,cuprate
Y1Sr2Cu2.7W0.3O6.9,26,cuprate
Y0.5Pr0.5Ba2Cu3O7,25.93,cuprate
Bi1Ba0.525K0.475O2.917,25.9,others
La1Fe1As1O0.9F0.08,25.9,iron-based
Ba0.5K0.5Mn0.04Fe1.96As2,25.85,iron-based
Ba1Ru0.18Fe1.82As2,25.8,iron-based
Sr1.9Ca0.1V1Fe1As1O3,25.8,iron-based
Y0.8Ca0.2Ba2Cu3O6.32,25.8,cuprate
La1Fe1As1O0.85,25.766667,iron-based
Eu2.17Ce0.5Sr1.33Cu2.5Fe0.5O9.23,25.7,cuprate
La1.95Bi0.05Cu1O4.075,25.7,cuprate
Mg0.815B2Al0.18,25.7,others
La1Fe1P0.2As0.8O0.95F0.05,25.61,iron-based
Bi1Ba0.57K0.43O2.983,25.6,others
Ba0.64K0.36Fe2As2,25.6,iron-based
Y0.1La0.9Fe1As1O0.6,25.6,iron-based
La1.8Nd0.2Cu1O4.093,25.6,cuprate
La1Ru0.03Fe0.97As1O0.89F0.11,25.6,iron-based
Mg0.55Li0.225B2Al0.225,25.6,others
Au0.146Mg0.854B2,25.6,others
Sm0.8Pr0.2Ba2Cu3O6.7,25.6,cuprate
Y1La2Ba3Cu6O14.53,25.6,cuprate
Bi1Ba0.553K0.447O3,25.5,others
La0.89Sr0.11Fe1As1O1,25.5,iron-based
La1.76Nd0.125Sr0.115Cu1O4,25.5,cuprate
La1.823Ba0.177Cu1O4,25.5,cuprate
La1.8Sr0.2Cu0.995Fe0.005O4,25.5,cuprate
La1.9Pr0.1Ca0.2Ba2Cu4.2O9.8786,25.5,cuprate
La1Fe0.8Zn0.2As1O0.85F0.15,25.5,iron-based
La1Fe0.98Zn0.02As1O0.9F0.1,25.5,iron-based
Hf1Li0.48H3.2C1.6N1O0.4Cl1,25.5,others
Mg1B1.792C0.208,25.5,others
Rb0.8Fe2Se1.7Te0.3,25.5,iron-based
Ru0.99Co0.01Sr2Gd1Cu2O8,25.5,cuprate
La0.85Sr0.15Fe1As1O1,25.4,iron-based
La1.85Sr0.016Ca0.074Ba0.06Cu1O4.01,25.4,cuprate
La1Fe0.95Zn0.05As1O0.9F0.1,25.4,iron-based
La1Fe1As1O0.87F0.13,25.4,iron-based
Y0.6Pr0.4Ba2Cu3O6.66,25.4,cuprate
Ba1Fe2P0.82As1.18,25.3,iron-based
Y0.2La0.8Mn0.01Fe0.99As1O0.89F0.11,25.3,iron-based
La1.843Ba0.157Cu1O4,25.3,cuprate
Mg0.815B2Al0.185,25.3,others
Eu0.7Na0.3Fe2P0.6As1.4,25.2,others
La1.85Sr0.15Cu0.99Co0.01O4,25.2,cuprate
La1Fe1As1O0.93F0.07,25.2,iron-based
Nd1Fe1P0.5As0.5O0.9F0.1,25.2,others
Pb0.5Cu1Sr0.8La1.2O5.25,25.2,cuprate
Pb0.6Cu1Sr0.8La1.2O5.29,25.2,cuprate
Y0.7Pr0.3Ba2Cu3O6.75,25.2,cuprate
Bi1.95Sr1.65La0.4Cu1F0.6O5.6,25.1,cuprate
Ca0.2Ba1.55La1.25Cu3O7.01,25.1,cuprate
La1.8Nd0.2Cu1O4.0641,25.1,cuprate
Na0.65Fe1.93S0.6Se1.4,25.1,iron-based
Pb0.6Cu1Sr1La1O5.19,25.1,cuprate
Pb0.6Cu1Sr1La1O5.21,25.1,cuprate
La1Fe1As1O0.9F0.1,25.061538,iron-based
Pr4Fe2As2O4Te0.88,25.05,iron-based
Rb0.8Fe2Se1.8Te0.2,25.05,iron-based
Bi1Ba0.557K0.443O3,25,others
Ba1.34Eu2Ce0.66Cu3O9.02,25,cuprate
Ba1Fe1.87Co0.13As2,25,iron-based
Bi0.1Pb0.4La1.3Sr1.2Cu2O5.83,25,cuprate
Bi0.1Pb0.4La1.4Sr1.1Cu2O5.84,25,cuprate
Bi1.4Pb0.6Sr1.4Ca1Nd0.6Cu2O8.22,25,cuprate
Ca0.4Na0.6Fe2As2,25,iron-based
Ca1.843Na0.157Cu1Cl2O2,25,cuprate
Pr1.97Pt3Ca8.03Fe10As18,25,iron-based
Gd0.94Pt3Ca9.06Fe10As18,25,iron-based
Er1Ba2Cu2.76Zn0.06Fe0.18O6.97,25,cuprate
Gd4Fe2As2O4Te0.9,25,iron-based
La1.01Pr0.85Sr0.14Cu1O4,25,cuprate
La1.25Ca0.15Nd0.6Cu1O4,25,cuprate
La1.425Nd0.4Sr0.175Cu1O4,25,cuprate
La1.4Ba1.5Ca0.1Cu3O6.903,25,cuprate
La1.5Ba1.1Ca0.4Cu3O6.764,25,cuprate
La1.5Ba1.3Ca0.2Cu3O6.918,25,cuprate
La1.5Ba1.4Ca0.1Cu3O6.932,25,cuprate
La1.782Sr0.218Cu1O4,25,cuprate
La1.7Sm0.3Cu1O4,25,cuprate
La1.825Sr0.175Cu0.985Ni0.015O4,25,cuprate
La1.83Sr0.17Cu0.99Zn0.01O4,25,cuprate
La1.84Sr0.16Cu0.987Ni0.013O4,25,cuprate
La1.913Sr0.087Cu1O4,25,cuprate
La1.9Sm0.1Cu1O4,25,cuprate
La2.3Yb0.1Ba2.3Ca0.2Cu5O11.805,25,cuprate
Hf1Mg0.3N1Cl1,25,others
Nd1.5Ce0.5Sr2Ta1Cu2O10,25,cuprate
Nd1.85Ce0.15Cu1O4.014,25,cuprate
Pb0.5Sr1.8Ba0.2Y0.85Ca0.15Cu2.5O6.98,25,cuprate
Pb0.6Cu1Sr1.1La0.9O5.19,25,cuprate
Sm1.5Ce0.5Sr2Cu2Nb1O10,25,cuprate
Sm4Fe2As2O4Te0.92,25,iron-based
Sr1.5Ba0.5Y1Cu2.8Ge0.2O7,25,cuprate
Sr2Cu1C0.92B0.08O5,25,cuprate
Tl1Ba0.3Sr0.7La1Cu1O5.11,25,cuprate
Y0.38Ba1.74La0.88Cu3O6.95,25,cuprate
Y0.8Pr0.2Ba2Cu2.7Fe0.3O7.1,25,cuprate
Y1Ba1.75Cu2.75Co0.25O6.95,25,cuprate
Y1Ba2Cu2.775Zn0.225O6.93,25,cuprate
Y1Ba2Cu2.91Zn0.09O6.73,25,cuprate
Y1Ba2Cu2.95Zn0.05O6.63,25,cuprate
Y1Ba2Cu2.95Zn0.05O6.69,25,cuprate
Y1Ba2Cu2.95Zn0.05O6.7,25,cuprate
Y1Ba2Cu3.925Zn0.075O8,25,cuprate
La1.922Ba0.078Cu1O4,24.95,cuprate
Ba1Rh0.114Fe1.886As2,24.9,iron-based
La0.8Sr0.2Fe1As1O1,24.9,iron-based
La1.943Sr0.115Cu1O4,24.9,cuprate
Pb0.5Cu1Sr0.9La1.1O5.22,24.9,cuprate
Bi1Ga1Sr1.8Ca1.2Cu2O8,24.8,cuprate
Ca0.4Ba1.35La1.25Cu3O6.95,24.8,cuprate
Sm1La0.8Sr0.2Cu1O3.94,24.8,cuprate
La1.855Sr0.145Cu0.99Zn0.01O4,24.7,cuprate
Sm1Fe1As1O0.87F0.13,24.7,iron-based
La0.9Sr0.1Fe1As1O1,24.6,iron-based
La1.943Sr0.089Cu1O4,24.6,cuprate
La1Fe0.4Zn0.6As1O0.85F0.15,24.6,others
Pr0.89La1Ce0.11Cu1O4,24.6,cuprate
Pr0.91La1Ce0.09Cu1O4,24.6,cuprate
Bi1Ba0.55K0.45O3,24.525,others
Ba0.39K0.61Fe2As2,24.5,iron-based
Ir0.4Ba1Fe1.6As2,24.5,iron-based
Ba1Fe2P0.54As1.46,24.5,iron-based
Cu2V0.25Sr2Y1.3Ce0.7O8.77,24.5,cuprate
K0.8Fe1.7S1Se1,24.5,iron-based
La1.05Ca0.15Nd0.8Cu1O4,24.5,cuprate
La1Fe0.9875Co0.0125As1O0.89F0.11,24.5,iron-based
Au0.236Mg0.764B2,24.5,others
Nd2Cu1F0.22O3.78,24.5,cuprate
La1Fe1As1O0.6,24.4,iron-based
La0.2Sr0.8Fe1As1F1,24.4,iron-based
Ba1Fe1.885Co0.115As2,24.3,iron-based
Ho0.5Pr0.5Ba2Cu3O6.67,24.3,cuprate
La1.88Ce0.12Cu1O4,24.3,cuprate
La1.895Ce0.105Cu1O4,24.3,cuprate
Ca1.85Na0.15Cu1Cl2O2,24.225,cuprate
Ba0.3Na0.7Fe2As2,24.2,iron-based
Hg1Ba2Cu1O4.39,24.2,cuprate
La1.95Bi0.05Cu0.99Zn0.01O4.0628,24.2,cuprate
Li0.8H1Fe1.2O1S0.53Se0.47,24.2,others
Ru0.6Sn0.4Sr2Eu1Cu2O8,24.2,cuprate
Ir0.43Sr1Fe1.57As2,24.2,iron-based
La1Fe1P0.6As0.4O0.95F0.05,24.12,iron-based
Pt0.1Ba1Fe1.9As2,24.1,iron-based
Y0.1La0.9Mn0.005Fe0.995As1O0.89F0.11,24.1,iron-based
Pb0.5Cu1Sr1La1O5.19,24.1,cuprate
Y0.4Pr0.6Ba1Sr1Cu3O8.9,24.1,cuprate
Al1Sr2Ho0.4Ca0.6Cu2O7,24,cuprate
Ba0.737K0.263Fe2As2,24,iron-based
Ba1.6Sr0.4Yb0.75Ca0.25Cu3O6.19,24,cuprate
Ba1Fe1.878Co0.122As2,24,iron-based
Bi0.3Pb0.2La1.5Sr1Cu2O5.94,24,cuprate
Bi1.95Sr1.45La0.6Cu1O4,24,cuprate
Bi1.95Sr1.65La0.4Cu1O6.347,24,cuprate
Bi1Pb1Sr1.2La0.2Cu1O6,24,cuprate
Bi2Sr1.76La0.24Cu1O6,24,cuprate
Bi2Sr2Ho1.64Ce0.36Cu2O10.22,24,cuprate
Ca0.75K0.25Cu1Cl2O2,24,cuprate
Nd0.19Ca0.81Fe1As1.98Sb0.02,24,iron-based
Ca0.85K0.15Cu1Cl2O2,24,cuprate
Ca1.65Na0.35Cu1Br1Cl1O2,24,cuprate
Ca1.7K0.3Cu1Cl2O2,24,cuprate
Ca1.8K0.2Cu1Cl2O2,24,cuprate
Ca2Cu1Cl2.18O2,24,cuprate
Cu2Co0.25Sr2Y1.3Ce0.7O8.43,24,cuprate
Eu0.5Ca0.5Fe2As2,24,iron-based
Sr4Mg1Ti1Fe1.8Co0.2As2O6,24,iron-based
Hf1N1Cl0.7,24,others
Hg0.5Fe0.5Sr2Y0.7Ca0.3Cu2O6.7,24,cuprate
Cs1K2C60,24,others
La0.8Pr0.2Ba1.5Sr0.5Cu3O6.906,24,cuprate
La1.65Sm0.15Sr0.2Cu1O4,24,cuprate
La1.815Sr0.185Cu0.99Zn0.01O4,24,cuprate
La1.85Sr0.03Ca0.066Ba0.054Cu1O4,24,cuprate
La1.88Ca0.12Cu1O4,24,cuprate
La1.925Ba0.075Cu1O4,24,cuprate
La1Ba1Ca1Cu2.6Ni0.4O6.854,24,cuprate
Mg0.71B2Al0.29,24,others
Mg1B0.85C0.15,24,others
Nd1.32Sr0.41Ce0.27Cu1O4,24,cuprate
Nd1.85Ce0.15Cu1O3.93,24,cuprate
Pr0.85La1Ce0.15Cu1O4,24,cuprate
Pr0.88La1Ce0.12Cu1O3.934,24,cuprate
Rb0.75Fe1.6S0.25Se1.75,24,iron-based
Sm1Ba2Cu2.7Ni0.3O6.97,24,cuprate
Sm1La0.8Sr0.2Cu1O4,24,cuprate
Tl1.7Ba2Cu1O6,24,cuprate
Tl1Sr2Ca1Cu2O6.85,24,cuprate
Y0.8Ca0.2Ba2Cu3O6,24,cuprate
Y1Ba2Cu2.919Zn0.081O6.8,24,cuprate
Y1Ba2Cu2.95Zn0.05O6.56,24,cuprate
Y1Pd4.2B3C0.3,24,others
Y1Sr1.4Ba0.6Cu2.5B0.5O7,24,cuprate
La1Fe0.2Zn0.8As1O0.85F0.15,23.9,others
La1H0.4Fe1As1O0.6,23.9,iron-based
La1.875Ca0.125Cu1O4,23.85,cuprate
Ba0.68Na0.32Fe2As2,23.8,iron-based
Ba0.7Na0.3Fe2As2,23.8,iron-based
La1Mn0.00025Fe0.99975As1O0.89F0.11,23.8,iron-based
Tb0.84Pt3Ca9.16Fe10As18,23.7,iron-based
La1.8Nd0.05Ca0.074Ba0.076Cu1O4.01,23.7,cuprate
La1.9Sr0.1Cu0.9975Zn0.0025O4,23.655,cuprate
La1Ru0.1Fe0.9As1O0.89F0.11,23.65,iron-based
La1.877Ba0.123Cu1O4,23.6,cuprate
La1.8Sr0.2Cu0.9883Zn0.0117O4,23.6,cuprate
La1Ru0.15Fe0.85As1O0.89F0.11,23.6,iron-based
La1Fe1P0.1As0.9O0.95F0.05,23.6,iron-based
Pr1.96Ce0.04Cu1O4,23.6,cuprate
Ba1Fe1.85Co0.15As2,23.525,iron-based
Pr0.021Bi0.979Ba0.6K0.4O3,23.5,others
Ba0.78K0.22Fe2As2,23.5,iron-based
Ca1.7Na0.3Cu1Br1Cl1O2,23.5,cuprate
Ce1Fe0.95Co0.05As1O0.9F0.1,23.5,iron-based
Eu1.5Ce0.5Sr2Cu2Nb1O10,23.5,cuprate
Eu1Fe1.6P0.4As2,23.5,iron-based
Sr4Mg0.9Ti1.1Fe2As2O6,23.5,iron-based
La1.801Ba0.199Cu1O4,23.5,cuprate
La1.85Sr0.016Ca0.074Ba0.06Cu1O4,23.5,cuprate
Nb0.7Fe1.55S0.99Se1.01,23.5,iron-based
Ru1Sr2Gd0.91Nd0.09Cu2O8,23.5,cuprate
Y0.55Pr0.45Ba2Cu3O6.8,23.5,cuprate
Y0.7Zn0.3Ba2Cu3O7,23.5,cuprate
Ba1Fe1.874Co0.126As2,23.45,iron-based
Pt0.15Ba1Fe1.85As2,23.4,iron-based
Pr1Fe1P0.4As0.6O0.9F0.1,23.4,iron-based
Sm0.8Pr0.2Ba2Cu3O6.75,23.4,cuprate
Nd1.55La0.3Ce0.15Cu1O4,23.35,cuprate
Ba0.9Rb0.1Fe2As2,23.3,iron-based
Bi1Ba1K1O3,23.3,others
Sm1Fe0.95Zn0.05As1O0.8F0.2,23.3,iron-based
Ba1Fe1.89Co0.11As2,23.25,iron-based
Bi2Sr1.6La0.4Cu1O6.32,23.2,cuprate
Ca1H1Fe0.88Co0.12As1,23.2,iron-based
La1.85Sr0.15Cu0.989Zn0.011O4,23.2,cuprate
Nb3Ge1,23.2,others
Tl2.2Rb2.7C60,23.2,others
Bi1Ba0.542K0.458O3,23.1,others
Bi2Sr1.6Nd0.4Cu1O6.32,23.1,cuprate
La1.82Ba0.18Cu1O4,23.1,cuprate
La0.8Na0.2Fe1As1O0.8F0.2,23.02,iron-based
Bi1Ba1K1O4,23,others
Bi1.6Pb0.4Sr1.6La0.4Cu1O6.082,23,cuprate
Bi1.95Sr1.65La0.4Cu1O6.36,23,cuprate
Ca1.825Na0.175Cu1Br1Cl1O2,23,cuprate
Ca1H1Fe0.93Co0.07As1,23,iron-based
Ce1H1Fe0.88Co0.12As1,23,iron-based
Ce1H1Fe0.91Co0.09As1,23,iron-based
Ce1H1Fe0.93Co0.07As1,23,iron-based
Er1Ba2Cu2.7Zn0.12Fe0.18O6.95,23,cuprate
Eu0.5K0.5Fe1.94Ni0.06As2,23,iron-based
Eu1Fe2P0.3As1.7,23,iron-based
La0.85Ca0.15Nd1Cu1O4,23,cuprate
La1.562Nd0.288Ca0.106Ba0.044Cu1O3.98,23,cuprate
La1.562Nd0.288Ca0.106Ba0.044Cu1O4,23,cuprate
La1.788Sr0.213Cu1O4,23,cuprate
La1.85Ca1.15Cu2O5.99,23,cuprate
La1.885Ca0.115Cu1O4,23,cuprate
La1.89Ca0.11Cu1O4,23,cuprate
Mo1Sr2Eu1.5Ce1Cu2O10,23,cuprate
Nd1.25La0.6Ce0.15Cu1O4,23,cuprate
Nd1Ba2Cu2.85Ga0.15O6.62,23,cuprate
Nd2Cu1F0.4O4,23,cuprate
Pr2Ba4Cu7O14.21,23,cuprate
Ru0.9Sr2Er1Cu2O7.8,23,cuprate
Sr1.6K0.4Cu1C1O5,23,cuprate
Sr2Cu1C0.93B0.07O5,23,cuprate
Tl1Sr2Ca1Cu2O6.52,23,cuprate
Y0.4Pr0.6Ba0.75Sr1.25Cu3O6.92,23,cuprate
Y0.4Pr0.6Ba1Sr1Cu3O7,23,cuprate
Y1Ba2Cu2.91Zn0.09O6.75,23,cuprate
Y1Ba2Cu2.94Ni0.06O6.47,23,cuprate
Y1Ba2Cu2.94Zn0.06O6.7,23,cuprate
Y1Ba2Cu2.95Zn0.05O6.52,23,cuprate
Y1Ba2Cu2.9Zn0.1O6.93,23,cuprate
Y1Ni2B2C1,23,others
Y1Sr2Cu2.7Ti0.3O7.152,23,cuprate
Ba1Fe1.884Co0.116As2,22.933333,iron-based
Ca1Fe0.9Co0.1As1F1,22.933333,iron-based
Ba1Fe1.84Co0.16As2,22.9,iron-based
Gd1Ba1.7Pr0.3Cu3O7.06,22.9,cuprate
La1.85Sr0.15Cu0.9875Co0.0125O4,22.9,cuprate
Hf1Na0.28N1Cl1,22.9,others
Nd1.86Ce0.14Cu1O4,22.9,cuprate
Pb0.47Bi0.53Ba0.82K0.18,22.8,others
La1.8Sr0.2Cu0.995Zn0.005O4,22.8,cuprate
La1Mn0.00025Fe0.9997As1O0.89F0.11,22.8,iron-based
Tb1Fe1As1O0.9,22.8,iron-based
Ba1Fe1.852Co0.148As2,22.78,iron-based
La0.14Ba0.86Fe2As2,22.7,iron-based
Ca1H1Fe0.91Co0.09As1,22.7,iron-based
Y0.2La0.8Mn0.008Fe0.992As1O0.89F0.11,22.7,iron-based
La1.95Bi0.05Cu0.99Zn0.01O4.093,22.7,cuprate
Sm1.86Ce0.14Cu1O4,22.7,cuprate
Ba0.84Rb0.1Fe2Sn0.09As2,22.6,iron-based
Bi2Sr1.3La0.7Cu1O6.422,22.6,cuprate
Ce0.74Pt3Ca9.26Fe10As18,22.6,iron-based
La1.934Ba0.066Cu1O4,22.6,cuprate
Nd1Fe1P0.6As0.4O0.9F0.1,22.6,iron-based
Y1Pd2B2C1,22.6,others
Ba1Ru0.875Fe1.125As2,22.5,iron-based
Pt4.6Ca10Fe9.4As18,22.5,iron-based
La1.85Sr0.15Cu0.982Ni0.018O4,22.5,cuprate
Nd1.847Ce0.153Cu1O4,22.5,cuprate
Nd1.85Th0.15Cu1O4,22.5,cuprate
Y1Ba2Cu2.94Zn0.06O6.68,22.5,cuprate
Y1Ba2Cu3.7Zn0.3O8,22.5,cuprate
La1.885Sr0.115Cu0.9975Zn0.0025O4,22.46,cuprate
La1.83Sr0.17Cu0.98Ni0.02O4,22.45,cuprate
La0.12Ba0.88Fe2As2,22.4,iron-based
Ba1Fe1.86Co0.14As2,22.4,iron-based
Ba1Fe2P0.72As1.28,22.4,iron-based
Rb1K2C60,22.4,others
Pr1.85Ce0.15Cu0.96V0.04O3.98,22.4,cuprate
Tl1Fe1.7Se2,22.4,iron-based
La1Fe1P0.25As0.75O0.95F0.05,22.38,iron-based
La1.85Sr0.15Cu0.9875Zn0.0125O4,22.3,cuprate
Pr1.85Ce0.15Cu0.98V0.02O3.98,22.3,cuprate
Sm1.857Ce0.143Cu1O4,22.3,cuprate
Ba0.5K0.5Fe1.9Cu0.1As2,22.29,iron-based
La1.914Sr0.086Cu1O4,22.25,cuprate
Bi1Ba0.51K0.49O2.974,22.2,others
Ba1Rh0.152Fe1.848As2,22.2,iron-based
Ca1Rh0.08Fe0.92As1F1,22.2,iron-based
La0.93Pt3Ca9.07Fe10As18,22.2,iron-based
Nd1.75Sm0.1Ce0.15Cu1O3.972,22.2,cuprate
Rb0.8Fe2Se1.75Te0.25,22.2,iron-based
La1.82Pt3Ca8.18Fe10As18,22.1,iron-based
La1.79Sr0.21Cu0.99Ru0.01O4,22.1,cuprate
Nd1.5Ce0.5Sr2Cu2Nb1O10,22.1,cuprate
Nd1.85Ce0.15Cu0.995Mn0.005O4,22.1,cuprate
Nd1.85Ce0.15Cu1O3.95,22.1,cuprate
Nd1Ru0.2Fe0.8As1O0.89F0.11,22.1,iron-based
La0.87Sr0.13Fe1As1O1,22.066667,iron-based
Ba0.511K0.489Fe1.772Co0.228As2,22,iron-based
Ba1.6Sr0.4Yb0.75Ca0.25Cu3O6,22,cuprate
Ba1Fe1.75Co0.25As2,22,iron-based
Bi1.95Sr1.45Pr0.6Cu1O4,22,cuprate
Bi2Ca2.5Sm0.5Cu2O8.33,22,cuprate
Sr0.33Ca0.67Fe2As2,22,iron-based
Ca1La1Ba1Cu2.76Fe0.24O7,22,cuprate
Eu1.5Ce0.5Sr2Cu1Ti1O10,22,cuprate
Eu1Fe2P0.32As1.68,22,iron-based
Sr4Mg1Ti1Fe1.9Co0.1As2O6,22,iron-based
Fe1Sr2Eu1Cu2O7.51,22,cuprate
Sc1.5Sr4Ti1.5Fe2As2O8,22,iron-based
Gd1Fe1As1O0.83F0.17,22,iron-based
K0.8Fe1.996Co0.004Se2,22,iron-based
La1.02Pr0.85Sr0.13Cu1O4,22,cuprate
La1.82Sr0.18Cu1O3.967,22,cuprate
La1.8Nd0.1Ba0.1Cu1O4,22,cuprate
La1.945Rb0.055Cu1O4,22,cuprate
La2.85Ca0.3Ba2.85Cu6O14.252,22,cuprate
Hf1Na0.18N1Cl1,22,others
Nd1.55La0.3Th0.15Cu1O4,22,cuprate
Pr0.65Sr0.35Fe1As0.8Sb0.2O1,22,iron-based
Pr0.6Sr0.4Fe1As0.9Sb0.1O1,22,iron-based
Pr0.88La1Ce0.12Cu1O3.947,22,cuprate
Pr1.85Ce0.15Cu0.99V0.01O3.98,22,cuprate
Rb0.75Fe1.6S1Se1,22,iron-based
Ru0.9Ir0.1Sr2Gd1Cu2O8,22,cuprate
Sr0.2La1.8Cu0.99Cr0.01O4,22,cuprate
Tl1Ba0.6Sr0.4La1Cu1O5.16,22,cuprate
Y0.57Pr0.43Ba2Cu3O7,22,cuprate
Y1Ba1.5La0.5Cu3O7.06,22,cuprate
Y1Ba2Cu2.64Co0.36O7.03,22,cuprate
Y1Ba2Cu2.79Co0.21O7,22,cuprate
Y1Ba2Cu2.7Co0.3O6.88,22,cuprate
Y1Pd3B3C0.3,22,others
Y2Ba4Cu7O14.33,22,cuprate
La1.85Sr0.15Cu0.988Zn0.012O4,21.95,cuprate
Ca0.4Nd0.6Ba1La1Cu3O7.19,21.9,cuprate
La0.22Ca0.78Fe1As2,21.9,iron-based
Pr0.65Sr0.35Fe1As0.85Sb0.15O1,21.9,iron-based
Sr1Rh0.25Fe1.75As2,21.9,iron-based
Y0.5Pr0.5Ba2Cu3O6.98,21.9,cuprate
Y1Ba2Cu3O6.29,21.9,cuprate
Pr0.65Sr0.35Fe1As0.9Sb0.1O1,21.87,iron-based
La1.87Ce0.13Cu1O4,21.833333,cuprate
Bi2Sr1.6Pr0.4Cu1O6.313,21.8,cuprate
La1.884Ba0.116Cu1O4,21.8,cuprate
Nd1.55Sm0.3Ce0.15Cu1O3.972,21.8,cuprate
Sm1.85Ce0.15Cu1O3.97,21.8,cuprate
Ce1Fe1P0.15As0.85O0.95F0.05,21.75,iron-based
Ba1Fe1.844Co0.156As2,21.7,iron-based
Sm1Ru0.1Fe0.9As1O0.85F0.15,21.7,iron-based
Sr0.67K0.33Fe2As2,21.7,iron-based
Eu1Ir0.28Fe1.72As2,21.666667,iron-based
La1.782Ba0.218Cu1O4,21.6,cuprate
La1Fe1As1O0.925F0.075,21.6,iron-based
Nd0.85Pr0.15Ba2Cu3O6.75,21.6,cuprate
Nd1.65Sm0.2Ce0.15Cu1O3.971,21.6,cuprate
Nd1.85Ce0.15Cu1O3.971,21.6,cuprate
Pb0.1Bi0.9Ba0.6K0.4O3,21.5,others
Eu1Fe1.2P0.8As2,21.5,others
Eu1Ru0.5Fe1.5As2,21.5,iron-based
La1.775Sr0.225Cu1O4,21.5,cuprate
Pr1.91Ce0.09Cu1O4,21.5,cuprate
Th1Pd3B3C1,21.5,heavy-Fermion
Y0.65Pr0.35Ba2Cu3O6.6,21.5,cuprate
K0.7Fe1.55S0.99Se1.01,21.4,iron-based
Sm1.75Gd0.1Ce0.15Cu1O3.97,21.4,cuprate
Ba1Ru1.125Fe0.875As2,21.3,iron-based
Ca0.4Ba1.25La1.35Cu3O7.04,21.3,cuprate
Nd1.86Ce0.14Cu1O3.96,21.3,cuprate
Nd1Ru0.3Fe0.7As1O0.89F0.11,21.3,iron-based