Formula,Tc,Materials_family
Hg0.9Re0.1Ba2Cu1O4.33,87.2,cuprate
Tm1Ba2Cu3O6.86,87.2,cuprate
Bi2Sr1.6Ca1.2Eu0.2Cu2O8.26,87.1,cuprate
Bi2Sr1.6Ca1.2Gd0.2Cu2O8.26,87.1,cuprate
Dy1Ba1.97Cu3.06O7,87.1,cuprate
Y0.981Ba1.994Ca0.025Cu4O8,87.1,cuprate
Ba2Ca1Cu2F1.8O4.2,87,cuprate
Bi1.6Pb0.4Sr1.8Ca1Nd0.2Cu2O8.11,87,cuprate
Bi1.6Pb0.4Sr2Ca0.8Nd0.2Cu2O8.16,87,cuprate
Bi1.8Pb0.2Sr2Ca0.8Nd0.2Cu2O8.21,87,cuprate
Bi2Sr2Ca0.9Er0.1Cu2O8,87,cuprate
Ho0.7Ca0.3Ba2Cu4O8,87,cuprate
Ho0.85Ca0.15Ba2Cu4O8,87,cuprate
Ho0.8Ca0.2Ba2Cu4O8,87,cuprate
Ho0.9Ca0.1Ba2Cu4O8,87,cuprate
Sm1Ba2Cu3O7.01,87,cuprate
Tl1Sr2Ca0.1Y0.9Cu2O6.97,87,cuprate
Tl1Sr2Ca0.6Y0.4Cu2O6.86,87,cuprate
Tl1Sr2Ca0.7Y0.3Cu2O6.84,87,cuprate
Tl2Ba2Cu1O5.876,87,cuprate
Y0.3Cd0.7Ba2Cu3O7,87,cuprate
Y0.88Ca0.12Ba2Cu2.88Co0.12O6.78,87,cuprate
Y0.8Pr0.05Ca0.15Ba2Cu3O6.83,87,cuprate
Y0.8Sc0.2Ba2Cu4O8,87,cuprate
Y0.98Ca0.02Ba2Cu4O8,87,cuprate
Y0.9Ca0.1Ba1.8La0.2Cu3O6.97,87,cuprate
Y1Ba2Cu2.9Fe0.1O7.293,87,cuprate
Y2Ba4Cu7O15.03,87,cuprate
Yb0.9Ca0.1Ba1.8Sr0.2Cu4O8,87,cuprate
Yb1Ba2Cu3O6.71,87,cuprate
Gd0.95Hf0.05Ba2Cu3O6.91,86.9,cuprate
Y1Ba2Cu3O6.791,86.9,cuprate
Gd1Ba1.95Pr0.05Cu3O7.03,86.8,cuprate
Lu0.8Pr0.2Ba2Cu3O7,86.8,cuprate
Y0.97Ca0.03Ba2Cu3O6.97,86.7,cuprate
Bi2Sr2Ca1Cu2I0.03O8.21,86.6,cuprate
Y1Cu2.99Zn0.01O7,86.6,cuprate
Y1Ba2Cu2.99Zn0.01O7,86.5,cuprate
Y1Ba2Cu3H0.6O6.91,86.5,cuprate
Yb0.85Pr0.15Ba2Cu3O6.97,86.5,cuprate
Bi2Sr2Ca1Cu2O8.11,86.45,cuprate
Dy1Ba1.5Sr0.5Cu3O6.9,86.3,cuprate
Gd0.65Ca0.2Hf0.15Ba2Cu3O6.96,86.3,cuprate
Gd0.7Ca0.15Mo0.15Ba2Cu3O6.716,86.3,cuprate
Y0.925Ca0.075Ba2Cu3O6.93,86.3,cuprate
Y1Ba1.5Sr0.5Cu3O6.9,86.3,cuprate
Y1Ba1.5Sr0.5Cu3O6.91,86.3,cuprate
Y1Ba2Cu2.94Ni0.06O6.9,86.3,cuprate
Y0.93Ca0.07Ba2Cu4O8,86.25,cuprate
Y1Ba2Cu2.92Fe0.08O7,86.2,cuprate
Y1Ba2Cu2.955Ni0.045O6.95,86.2,cuprate
Bi4Sr3Ca1.5Y1.5Cu4O16,86.1,cuprate
Nd0.95Ca0.025Pr0.025Ba2Cu3O6.95,86.1,cuprate
Tl1Ba2Ca0.9Y0.1Cu2O7,86.1,cuprate
Bi1.8Pb0.2Sr1.8Ca1Nd0.2Cu2O8.2,86,cuprate
Bi2Sr1.6Ca1.2La0.2Cu2O8.27,86,cuprate
Bi2Sr1.6Ca1.2Nd0.2Cu2O8.26,86,cuprate
Bi2Sr2Ca0.7Y0.3Cu2O8.3,86,cuprate
Bi2Sr2Ca0.8Y0.2Cu2O8.34,86,cuprate
Bi2Sr2Ca1Cu2O8.248,86,cuprate
Dy1Ba2Cu3O6.879,86,cuprate
Er0.95Ca0.05Ba2Cu3O6.935,86,cuprate
Er0.95Hf0.05Ba2Cu3O6.938,86,cuprate
Er1Ba2Cu2.9Ga0.1O6.78,86,cuprate
Gd1Ba1Sr1Cu3O6.94,86,cuprate
Nd1Ba1.6Sr0.4Cu3O6.94,86,cuprate
Sr2Nd0.2Ca0.8Cu2F1O5,86,cuprate
Tl0.76Ba1Cu1O4.5,86,cuprate
Tl1Sr1.5Sm0.5Ca1Cu2O7,86,cuprate
Tl1Sr2Ca2Cu3O9.4,86,cuprate
Y0.5La0.5Ba2Cu3O7.01,86,cuprate
Y0.76Ca0.24Ba2Cu2.85Co0.15O6.8,86,cuprate
Y0.85Ca0.15Ba2Cu2.85Co0.15O6.97,86,cuprate
Y0.8Ca0.2Ba2Cu2.85Co0.15O6.84,86,cuprate
Y0.9Ca0.1Ba1.9La0.1Cu3O6.95,86,cuprate
Y1Ba1.2Sr0.8Cu3O6.8,86,cuprate
Y1Ba1.4Sr0.6Cu3O6.8,86,cuprate
Y1Ba1.5Sr0.5Cu3O6.98,86,cuprate
Y1Ba1.95La0.05Cu3O6.89,86,cuprate
Y1Ba1.99Cu2.847Ag0.153O6.7,86,cuprate
Y1Ba1Sr1Cu2.9Mo0.1O7.16,86,cuprate
Y1Ba2.01Cu3.11O7,86,cuprate
Y1Ba2Cu2.94Al0.06O6,86,cuprate
Y1Ba2Cu2.985Zn0.015O6.95,86,cuprate
Y1Ba2Cu2.98Ni0.02O6.94,86,cuprate
Y1Ba2Cu3H0.21O7,86,cuprate
Y1Ba2Cu3Li0.3O7,86,cuprate
Y1Ba2Cu4O7.96,86,cuprate
Yb0.9Ca0.1Ba1.6Sr0.4Cu4O8,86,cuprate
Y0.9Pr0.1Ba2Cu3O6.98,85.9,cuprate
Y1Ba1.5Sr0.5Cu3O6.95,85.9,cuprate
Bi4Sr3Ca1.4Y1.6Cu4O16,85.8,cuprate
Sr2Nd0.1Ca0.9Cu2F1O5,85.8,cuprate
Y1Ba2Cu3H0.69O6.91,85.7,cuprate
Bi2Sr2Ca1Cu2O8.17,85.5,cuprate
Bi2Sr2Ca1Cu2O8.27,85.5,cuprate
Gd1Ba1.5Sr0.5Cu3O6.93,85.5,cuprate
Y0.95Pr0.05Ba2Cu3O6.85,85.5,cuprate
Y0.9Ca0.1Ba1.6Sr0.4Cu4O7.8,85.5,cuprate
Y1Ba1.25Sr0.75Cu3O6.928,85.5,cuprate
Y0.9Ca0.1Ba2Cu3O6.87,85.4,cuprate
Y1Ba1.9Ca0.1Cu4O8,85.4,cuprate
Dy1Ba1.4Sr0.6Cu3O6.91,85.2,cuprate
Y0.95Ca0.05Ba2Cu4O8,85.16,cuprate
Nd0.97Pr0.03Ba2Cu3O7,85.1,cuprate
Yb1Ba2Cu2.982Zn0.018O6.9,85.1,cuprate
B1Sr2Ca4Cu5O13,85,cuprate
Bi1.6Pb0.4Sr2Ca0.6Nd0.4Cu2O8.26,85,cuprate
Bi1Pb1Sr2Y0.5Ca0.5Cu2O8,85,cuprate
Bi2Sr2Ca1Cu2O8.196,85,cuprate
Bi8Sr6Ca6Cu9O33.912,85,cuprate
Er1Ba2Cu3O6.67,85,cuprate
Eu1Ba2Cu3S1O6,85,cuprate
Gd1.05Ba1.95Cu3O6.94,85,cuprate
Hg0.8Bi0.2Ba2Cu1O4.2,85,cuprate
Hg1Ba2Cu1O4.28,85,cuprate
Tl1Sr2Ca0.8Y0.2Cu2O6.82,85,cuprate
Y0.4La0.6Ba2Cu3O6.99,85,cuprate
Y0.6La0.4Ba2Cu3O6.92,85,cuprate
Y0.76Ca0.24Ba2Cu2.76Co0.24O6.84,85,cuprate
Y0.9Pr0.1Ba2Cu3O6.965,85,cuprate
Y1Ba1.9Ca0.1Cu3O6.84,85,cuprate
Y1Ba1Sr1Cu2.95Mo0.05O7.07,85,cuprate
Y1Ba2Cu2.84Fe0.16O7.303,85,cuprate
Y1Ba2Cu2.8Al0.2O6.91,85,cuprate
Y1Ba2Cu2.94Fe0.06O6.85,85,cuprate
Y1Ba2Cu2.94Fe0.06O6.929,85,cuprate
Y1Ba2Cu2.94Ni0.06O6.97,85,cuprate
Y1Ba2Cu2.94Ni0.06O7.01,85,cuprate
Y1Ba2Cu2.95Ni0.05O6.94,85,cuprate
Y1Ba2Cu2.98Zn0.02O7,85,cuprate
Y1Ba2Cu2.9Al0.1O7.1,85,cuprate
Yb0.9Ca0.1Ba1.4Sr0.6Cu4O8,85,cuprate
Tm0.95Ca0.05Ba2Cu4O8,84.8,cuprate
Y1Ba2Cu3O6.838,84.8,cuprate
Y1Ba2Cu3O6.937,84.8,cuprate
Dy1Ba1.2Sr0.8Cu3O6.9,84.7,cuprate
Er0.6Ca0.25Hf0.15Ba2Cu3O7.02,84.7,cuprate
Hg1.4Tl0.6Ba2Y0.6Ca0.4Cu2O7.78,84.6,cuprate
Y0.85Ca0.05Pr0.1Ba2Cu3O6.95,84.6,cuprate
Er0.82Ca0.18Ba2Cu2.82Co0.18O6.71,84.5,cuprate
Nd0.9Ca0.1Ba2Cu3O6.63,84.5,cuprate
Tl0.5Pb0.5Ca1Sr2Cu2O7,84.5,cuprate
Y1Ba1.3Sr0.7Cu3O6.98,84.5,cuprate
Bi4Sr4Ca1.5Tm0.5Cu4O16.5,84.3,cuprate
Dy1Ba1.8Sr0.2Cu3O6.89,84.2,cuprate
Gd0.9Hf0.1Ba2Cu3O6.88,84.2,cuprate
Y0.8Ca0.2Ba2Cu3O6.78,84.2,cuprate
Bi1.7Pb0.3Sr2Ca0.92Nd0.08Cu2O8.16,84.11,cuprate
Gd0.65Ca0.2Mo0.15Ba2Cu3O6.818,84.1,cuprate
Y0.8Ca0.2Ba2Cu3O6.8,84.1,cuprate
Y0.9Ca0.1Ba2Cu3O6.8,84.1,cuprate
Y0.9Pr0.1Ba2Cu3O7,84.1,cuprate
Bi1.6Pb0.4Sr2Cu3Ca2O10.11,84,cuprate
Bi2Sr1.3Ca0.7Cu1O6.15,84,cuprate
Bi2Sr2Ca1Cu2O8.234,84,cuprate
Cu3P0.5Sr2Ca1.9Y0.1O9.3,84,cuprate
Cu3P0.5Sr2Ca1.9Y0.1O9.4,84,cuprate
Er0.76Ca0.24Ba2Cu2.76Co0.24O6.92,84,cuprate
Eu1Ba1Sr1Cu3O6.95,84,cuprate
Gd0.922Pr0.078Ba2Cu3O7,84,cuprate
Gd1Ba2Cu3H0.12O6.89,84,cuprate
Hg1.4Tl0.6Ba2Y0.5Ca0.5Cu2O7.74,84,cuprate
Nd0.6Ca0.4Ba0.6La0.4Cu3O6.83,84,cuprate
Sm1Ba2Cu2.98Fe0.02O6.76,84,cuprate
Tl1Sr1.5Tm0.5Ca1Cu2O7,84,cuprate
Tl1Sr1.5Yb0.5Ca1Cu2O7,84,cuprate
Y0.7Ca0.3Ba2Cu2.7Co0.3O6.93,84,cuprate
Y0.8Ca0.2Ba1.8La0.2Cu3O6.94,84,cuprate
Y0.8La0.2Ba2Cu3O6.9,84,cuprate
Y0.9Ca0.1Ba2Cu2.85Co0.15O6.91,84,cuprate
Y1Ba2Cu2.993Zn0.007O7,84,cuprate
Yb0.9Ca0.1Ba1.2Sr0.8Cu4O8,84,cuprate
Bi2Sr2Ca1Cu2I0.1O8.21,83.9,cuprate
Bi4Sr4Ca1.8Tm0.2Cu4O16.38,83.9,cuprate
Bi4Sr4Ca1.9Tm0.1Cu4O16.28,83.9,cuprate
Gd0.7Ca0.15Hf0.15Ba2Cu3O6.93,83.8,cuprate
Y0.85Pr0.05Ca0.1Ba2Cu4O8,83.8,cuprate
Y0.925Ca0.075Ba2Cu4O8,83.8,cuprate
Y1Ba2Cu3Li0.5O7,83.79,cuprate
Y1Ba2Cu2.91Ga0.09O7,83.71,cuprate
Bi2Sr2Ca1Cu2O8.231,83.7,cuprate
Gd0.6Ca0.25Mo0.15Ba2Cu3O6.761,83.7,cuprate
Sm1Ba2Cu3O6.813,83.6,cuprate
Tm1Ba2Cu3O6.87,83.6,cuprate
Y1Ba1Sr1Cu3O6.96,83.5,cuprate
Y1Ba2Cu2.94Ni0.06O6.94,83.5,cuprate
Y0.94Ca0.06Ba2Cu3O6.97,83.4,cuprate
Tm0.93Ca0.07Ba2Cu4O8,83.3,cuprate
Y0.9Ca0.1Ba2Cu3O6.93,83.3,cuprate
Y1Ba1.926Ca0.074Cu4O8,83.3,cuprate
Y1Ba1Sr1Cu3O6.947,83.3,cuprate
Y1Ba2Cu2.095Al0.095O6.81,83.3,cuprate
Er0.95Ca0.05Ba2Cu4O8,83.2,cuprate
Eu1Ba1.93Cu2.92O7,83.2,cuprate
Bi2Sr2Ca0.95Pr0.05Cu2O8,83.15,cuprate
Bi1Pb1Sr2Y0.6Ca0.4Cu2O8,83,cuprate
Bi2.1Sr1.8Ca1Cu1.982Zn0.018O8,83,cuprate
Bi4Sr3Ca2.8Tm0.2Cu4O16.41,83,cuprate
Bi4Sr3Ca3Cu4O16.25,83,cuprate
Dy1Ba1Sr1Cu3O6.93,83,cuprate
Dy1Ba2Cu2.95Ga0.05O6.69,83,cuprate
Dy1Ba2Cu2.98Ni0.02O6.72,83,cuprate
Er1Ba2Cu2.91Fe0.09O6.96,83,cuprate
Eu0.9Pr0.1Ba2Cu3O6.78,83,cuprate
Gd1Ba1Sr1Cu3O6.93,83,cuprate
Hg1Ba2Cu0.97Zn0.03O4.081,83,cuprate
Sm1.15Ba1.85Cu3O7,83,cuprate
Sr2Ca1Cu2.8O7.5,83,cuprate
Y0.6Ca0.4Ba1.4La0.6Cu3O7.07,83,cuprate
Y0.7La0.3Ba2Cu3O6.92,83,cuprate
Y0.83Ca0.02Pr0.15Ba2Cu3O6.95,83,cuprate
Y0.85Ca0.15Ba2Cu3O6.65,83,cuprate
Y0.899Ca0.101Ba2Cu3O6.943,83,cuprate
Y0.95Ca0.05Ba2Cu2.85Co0.15O6.82,83,cuprate
Y0.9Pr0.1Ba2Cu3O6.96,83,cuprate
Y1Ba2Cu2.9775Zn0.0225O6.93,83,cuprate
Er0.85Pr0.15Ba2Cu3O7,82.9,cuprate
Er0.9Hf0.1Ba2Cu3O6.862,82.9,cuprate
Y0.75Ca0.25Ba2Cu4O8,82.9,cuprate
Y1Ba1Sr1Cu3O6.98,82.8,cuprate
Y1Ba2Cu2.975Zn0.025O6.93,82.8,cuprate
Gd0.75Ca0.1Hf0.15Ba2Cu3O6.89,82.7,cuprate
Y0.8Ca0.05Pr0.15Ba2Cu3O6.95,82.7,cuprate
Y0.9Ca0.1Ba2Cu3O6.72,82.6,cuprate
Bi1.7Pb0.3Sr2Ca0.99Nd0.01Cu2O8.03,82.5,cuprate
Er0.9Ca0.1Ba2Cu3O6.93,82.5,cuprate
Nd1Ba2Cu3O7.04,82.5,cuprate
Y0.5Ca0.5Ba1.5La0.5Cu3O6.96,82.5,cuprate
Y0.75Ca0.25Ba2Cu2.75Co0.25O7,82.5,cuprate
Y0.8Ca0.2Ba2Cu2.8Co0.2O6.98,82.5,cuprate
Y1Ba2Cu3O6.795,82.5,cuprate
Bi4Sr4Ca2Cu4O16.25,82.4,cuprate
Gd0.95Mo0.05Ba2Cu3O6.948,82.4,cuprate
Y0.6Ca0.4Ba1.5La0.5Cu3O7.01,82.4,cuprate
Y0.75Ca0.25Ba2Cu2.75Co0.25O6.98,82.4,cuprate
Y0.8Ca0.2Ba2Cu2.75Co0.25O7.01,82.2,cuprate
Ba1.6Sr0.4Yb1Cu3O6.96,82,cuprate
Ba2Ca1Cu2F2O4,82,cuprate
Bi1.6Sr0.4Yb1Cu3O6.999,82,cuprate
Cu3P0.5Sr2Ca2O9.25,82,cuprate
Dy1Ba2Cu2.96Fe0.04O6.89,82,cuprate
Dy1Ba2Cu2.96Ni0.04O6.73,82,cuprate
Er1Ba2Cu2.85Ga0.15O6.69,82,cuprate
Gd1Ba1Sr1Cu3O7,82,cuprate
Gd1Ba2Cu3H0.43O6.89,82,cuprate
Hg1Ba2Cu0.97Zn0.03O4.073,82,cuprate
Hg1Ba2Cu1O4.052,82,cuprate
Hg1Ba2Cu1O4.117,82,cuprate
La1Ba1.87Ca0.13Cu3O6.923,82,cuprate
Nd0.9Ba1.7Sr0.4Cu3O6.666,82,cuprate
Nd1Ba1.8Sr0.2Cu3O6.927,82,cuprate
Sr0.6Ca0.333Cu1O2.15,82,cuprate
Tl1Sr1.5Lu0.5Ca1Cu2O7,82,cuprate
Tl2Ba2Cu1O5.912,82,cuprate
Y0.3La0.7Ba2Cu3O6.98,82,cuprate
Y0.4Ca0.6Ba1.1La0.9Cu3O7.12,82,cuprate
Y0.4Ca0.6Ba1.2La0.8Cu3O7.07,82,cuprate
Y0.4Cu3Ba1.3La0.7O7,82,cuprate
Y0.5Ca0.5Ba1.2La0.8Cu3O7.12,82,cuprate
Y0.5Ca0.5Ba1.5La0.5Cu3O6.94,82,cuprate
Y0.64Ca0.36Ba2Cu2.64Co0.36O6.87,82,cuprate
Y0.6Ca0.4Ba1.3La0.7Cu3O7.12,82,cuprate
Y0.6Ca0.4Ba1.6La0.4Cu3O6.95,82,cuprate
Y0.76Ca0.24Ba2Cu2.94Co0.06O6.81,82,cuprate
Y0.7Ca0.3Ba1.4La0.6Cu3O7.12,82,cuprate
Y0.7Ca0.3Ba1.7La0.3Cu3O6.92,82,cuprate
Y0.7Ca0.3Ba2Cu2.7Co0.3O7.02,82,cuprate
Y0.8Ca0.2Ba2Cu3O6.84,82,cuprate
Y0.95Ca0.05Ba1.6Sr0.4Cu4O7.8,82,cuprate
Y0.95Ca0.05Ba2Cu2.95Ni0.05O6.83,82,cuprate
Y0.9Ca0.1Ba1.7La0.3Cu3O7.04,82,cuprate
Y0.9Ca0.1Ba1.9La0.1Cu3O6.96,82,cuprate
Y0.9Ca0.1Ba2Cu3O6.67,82,cuprate
Y0.9Pr0.1Ba2Cu3O6.82,82,cuprate
Y1Ba0.8Sr1.2Cu3O6.8,82,cuprate
Y1Ba1.4Sr0.6Cu4O7.95,82,cuprate
Y1Ba1.6Sr0.4Cu4O7.95,82,cuprate
Y1Ba1.8Sr0.2Cu4O7.95,82,cuprate
Y1Ba2Cu2.68Fe0.32O7.343,82,cuprate
Y1Ba2Cu2.6Fe0.4O7.401,82,cuprate
Y1Ba2Cu2.89Al0.11O7,82,cuprate
Y1Ba2Cu2.97Ti0.03O6.92,82,cuprate
Y1Ba2Cu4O7.95,82,cuprate
Y1Ca1Ba4Cu5N0.3C0.7O14,82,cuprate
Y2Ba4Cu7O14.92,82,cuprate
Yb0.8Pr0.2Ba2Cu3O6.97,82,cuprate
Y0.97Ca0.03Ba2Cu4O8,81.9,cuprate
Gd0.85Hf0.15Ba2Cu3O6.84,81.8,cuprate
Tl0.5Pb0.5Sr2Ca1Cu2O7,81.8,cuprate
Y0.85Pr0.15Ba2Cu3O6.97,81.8,cuprate
Y0.9Ca0.1Ba2Cu3O6.98,81.8,cuprate
Y0.9Ca0.1Ba2Cu3O7,81.8,cuprate
Y0.77Ca0.08Pr0.15Ba2Cu3O6.95,81.7,cuprate
Y0.85Pr0.15Ba2Cu3O6.95,81.6,cuprate
Dy1Ba1Sr1Cu3O6.94,81.5,cuprate
Ge0.5Cu3Sr2Ca1.9Y0.1O9.3,81.5,cuprate
Y0.9Ca0.1Ba2Cu3O6.96,81.5,cuprate
Y1Cu2.97Zn0.03O7,81.5,cuprate
Nd0.9Ca0.05Pr0.05Ba2Cu3O6.95,81.4,cuprate
Y0.8Ca0.1Pr0.1Ba2Cu3O6.95,81.4,cuprate
Y1Ba2Cu4O8.045,81.4,cuprate
Yb0.7Ca0.3Ba1.6Sr0.4Cu3O6.56,81.35,cuprate
Bi2Sr2Ca1Cu2O8.12,81.3,cuprate
Gd0.6Ca0.25Hf0.15Ba2Cu3O7,81.3,cuprate
Bi1.7Pb0.3Sr2Ca0.94Nd0.06Cu2O8.1,81.27,cuprate
Tl1Ba2Ca0.7Gd0.3Cu2O7,81.25,cuprate
Tm0.97Ca0.03Ba2Cu4O8,81.2,cuprate
Bi2Sr1.4Ca1.6Cu2O8.2,81.1,cuprate
Y0.9Ca0.1Ba2Cu3O6.91,81.1,cuprate
Ba1.6Sr0.4Yb1Cu3O6.8,81,cuprate
Ba2Ca2Cu3F1.8O6.2,81,cuprate
Bi2Sr2Ca1Cu2O8.14,81,cuprate
Bi4Sr3Ca2.5Tm0.5Cu4O16.52,81,cuprate
Bi4Sr4Ca3Cu4O16.29,81,cuprate
Cu2.5Sr2Ca1Cr0.5O7.5,81,cuprate
Dy1Ba2Cu2.94Ni0.06O6.72,81,cuprate
Dy1Ba2Cu2.98Zn0.02O6.87,81,cuprate
Er0.76Ca0.24Ba1.8Sr0.2Cu2.76Co0.24O6.91,81,cuprate
Er1Ba2Cu2.97Zn0.03O6.93,81,cuprate
Eu1.1Ba1.9Cu3O7.07,81,cuprate
Eu1Ba1Sr0.9Ca0.1Cu3O6.95,81,cuprate
Gd1Ba2Cu3O6.8,81,cuprate
Ge0.4Cu3Sr2Ca1.8Y0.2O9.3,81,cuprate
Hg1Ba2Cu1O4.3,81,cuprate
Ho0.95Ca0.05Ba2Cu4O8,81,cuprate
Pr1Ba2Cu3O6.8,81,cuprate
Sm1Ba2Cu2.98Zn0.02O6.82,81,cuprate
Tl1Sr1.3Nd0.7Ca1Cu2O7,81,cuprate
Tl2Ba2Cu1O6.01,81,cuprate
Y0.2La0.8Ba2Cu3O7,81,cuprate
Y0.4Cu3Ba1.4La0.6O6.95,81,cuprate
Y0.8Ca0.2Ba2Cu3O6.64,81,cuprate
Y0.9Pr0.1Ba2Cu3O6.91,81,cuprate
Y0.9Sc0.1Ba2Cu4O8,81,cuprate
Y1Ba1.36Sr0.64Cu4O8,81,cuprate
Y1Ba1Sr1Cu3O6.91,81,cuprate
Y1Ba2Cu2.902Pt0.098O6.4,81,cuprate
Y1Ba2Cu2.97Zn0.03O6.9,81,cuprate
Y1Ba2Cu2.97Zn0.03O6.93,81,cuprate
Y1Ba2Cu2.97Zn0.03O6.95,81,cuprate
Y1Ba2Cu2.9Ga0.1O6.8,81,cuprate
Yb0.95Pr0.05Ba1.7Sr0.3Cu3O6.91,81,cuprate
Yb0.9Pr0.1Ba1.7Sr0.3Cu3O6.9,81,cuprate
Yb1Ba1.7Sr0.3Cu3O6.9,81,cuprate
Yb1Ba1.8Sr0.2Cu4O8,81,cuprate
Zn1Tl0.78Ba1Cu1O4.5,81,cuprate
Er0.65Ca0.2Hf0.15Ba2Cu3O6.83,80.9,cuprate
Y0.8Ca0.2Ba2Cu3O6.53,80.9,cuprate
Bi1.7Pb0.3Sr2Ca0.98Nd0.02Cu2O8.05,80.89,cuprate
Tl1Ba2Ca1Cu2O7,80.8,cuprate
Y1Ba1.65Sr0.35Cu4O8,80.8,cuprate
Y1Ba1Sr1Cu3O6.93,80.8,cuprate
Y1Ba2Cu3H0.92O6.91,80.8,cuprate
Bi2Sr1.5Ca1.5Cu2O8.19,80.75,cuprate
Y0.975Ca0.025Ba2Cu4O8,80.75,cuprate
Gd0.55Ca0.3Mo0.15Ba2Cu3O6.626,80.7,cuprate
Dy1Ba1.6Sr0.4Cu3O6.89,80.6,cuprate
Gd0.8Ca0.05Hf0.15Ba2Cu3O6.86,80.6,cuprate
Y0.85Ca0.15Ba2Cu2.75Co0.25O7.01,80.6,cuprate
Y0.85Ca0.15Ba2Cu3O6.58,80.6,cuprate
Bi1.7Pb0.3Sr2Ca1Cu2O8,80.5,cuprate
Bi1.7Pb0.3Sr2Ca1Cu2O8.05,80.5,cuprate
La3Ca1Ba3Cu7O16.678,80.5,cuprate
Nd0.5Ca0.5Ba0.6La0.4Cu3O6.77,80.5,cuprate
Y1Ba0.74Sr1.26Cu3O6.98,80.5,cuprate
Y1Ba1.8La0.2Cu3O7.013,80.5,cuprate
Y1Ba2Cu2.9Fe0.1O7,80.5,cuprate
Y1Ba2Cu2.9Ni0.1O6.92,80.5,cuprate
Y1Ba2Cu3O6.861,80.5,cuprate
Y1Ba2Cu3O6.894,80.5,cuprate
Pb2Sr2Ho0.5Ca0.5Cu2.94Pt0.06O8,80.4,cuprate
Y1Ba1Sr1Cu3O6.899,80.2,cuprate
Y1Ba2Cu2.979Zn0.021O7,80.2,cuprate
Yb1Ba1.6Sr0.4Cu3O6.88,80.2,cuprate
Ba1.6Sr0.4Yb0.95Ca0.05Cu3O6.76,80,cuprate
Ba1.6Sr0.4Yb0.95Ca0.05Cu3O6.8,80,cuprate
Bi0.6Pb0.2S0.2Sr2Ca0.7Nd0.3Cu2O6.95,80,cuprate
Bi2.15Sr1.68Ca1.17Cu2O8,80,cuprate
Bi2Sr2Ca0.95Ce0.05Cu2O8,80,cuprate
Bi2Sr2Ca0.9Gd0.1Cu2O8,80,cuprate
Bi4Ca3Sr3Cu4O16.32,80,cuprate
Bi4Sr3Ca2.9Tm0.1Cu4O16.36,80,cuprate
Bi8Sr6Ca6Cu9O33.964,80,cuprate
Ca0.4La0.65Ba1.35Cu3O7.15,80,cuprate
Cu3P0.5Sr2Ca1.8Y0.2O9.55,80,cuprate
Er0.97Ca0.03Ba2Cu4O8,80,cuprate
Eu1Ba1Sr1Cu3O6.94,80,cuprate
Fe0.5Ba2Y1Cu2.5O7.41,80,cuprate
Gd0.95Ba1.95Ca0.1Cu4O8,80,cuprate
Hg1Ba2Cu1O4.21,80,cuprate
La1.2Ba1.8Cu3O6.98,80,cuprate
La1Ba1.75Ca0.25Cu3O6.951,80,cuprate
La2.3Gd0.6Ca1.2Ba2.9Cu7O16.543,80,cuprate
La2.57Ca0.86Ba2.57Cu6O14.2,80,cuprate
La2.5Gd0.5Ca1Ba3Cu7O16.359,80,cuprate
La2.5Gd0.5Ca1Ba3Cu7O16.539,80,cuprate
La2.5Y0.5Ca1Ba3Cu7Fe7O16.574,80,cuprate
La2.5Y0.5Ca1Ba3Cu7O16.552,80,cuprate
La2.5Y0.5Ca1Ba3Cu7O16.574,80,cuprate
Lu0.7Ca0.3Ba2Cu3O6.62,80,cuprate
Nd1.2Ba1.8Cu3O6.96,80,cuprate
Sm1Ba1Sr1Cu3O6.94,80,cuprate
Sr3.1Ca5.9Bi0.4Y0.3Pb0.3Cu16.7O29,80,cuprate
Tl1Sr1.5Dy0.5Ca1Cu2O7,80,cuprate
Tl1Sr1.5Ho0.5Ca1Cu2O7,80,cuprate
Tl1Sr1.5Tb0.5Ca1Cu2O7,80,cuprate
Y0.8Ca0.2Ba1.5La0.5Cu3O7.11,80,cuprate
Y0.8Pr0.15Ca0.05Ba2Cu3O6.82,80,cuprate
Y0.8Pr0.1Ca0.1Ba2Cu4O8,80,cuprate
Y0.95Ba1.95Ca0.1Cu4O8,80,cuprate
Y0.9Ca0.1Ba2Cu3O6.66,80,cuprate
Y1Ba0.75Sr1.25Cu3O6.91,80,cuprate
Y1Ba1.8La0.2Cu3O6.96,80,cuprate
Y1Ba2.2Cu4O8,80,cuprate
Y1Ba2Cu2.5Fe0.5O7.35,80,cuprate
Y1Ba2Cu2.5Fe0.5O7.413,80,cuprate
Y1Ba2Cu2.95Ni0.05O6.93,80,cuprate
Y1Ba2Cu2.97Zn0.03O6.98,80,cuprate
Y1Ba2Cu4O8.043,80,cuprate
Yb0.85Pr0.15Ba1.7Sr0.3Cu3O6.91,80,cuprate
Yb1Ba1.2Sr0.8Cu4O8,80,cuprate
Yb1Ba1.4Sr0.6Cu4O8,80,cuprate
Yb1Ba1.6Sr0.4Cu4O8,80,cuprate
Er0.85Hf0.15Ba2Cu3O6.813,79.9,cuprate
La1Ba1.25Ca0.75Cu3O6.958,79.9,cuprate
La1Ba1.5Ca0.5Cu3O6.96,79.9,cuprate
Yb0.8Pr0.2Ba2Cu3O6.88,79.9,cuprate
Y1Ba2Cu2.88Ga0.12O7,79.89,cuprate
Bi4Sr3Ca1.6Y1.4Cu4O16,79.8,cuprate
La1.25Ba1.35Ca0.4Cu3O7.16,79.8,cuprate
Tm1Ba2Cu3O6.8,79.8,cuprate
Y1Ba1.972Ca0.028Cu4O8,79.7,cuprate
Y0.75Ca0.1Pr0.15Ba2Cu3O6.95,79.6,cuprate
Y1Ba2Cu4O7.986,79.6,cuprate
Bi1Pb1Sr2Y0.4Ca0.6Cu2O8,79.5,cuprate
Dy1Ba1Sr1Cu3O6.89,79.5,cuprate
Er0.85Ca0.15Ba2Cu3O6.93,79.5,cuprate
Gd0.8Hf0.2Ba2Cu3O6.79,79.5,cuprate
Y1Ba1.46Sr0.54Cu4O8,79.5,cuprate
Y1Ba1.6Sr0.4Cu4O8,79.5,cuprate
Eu0.9Pr0.1Ba2Cu3O6.95,79.45,cuprate
Tm1Ba2Cu4O8,79.42,cuprate
Y0.8Pr0.2Ba1Sr1Cu3O6.9,79.4,cuprate
Bi4Sr3Ca1.2Y1.8Cu4O16,79.3,cuprate
Er0.99Ca0.01Ba2Cu4O8,79.3,cuprate
Y1Ba2Cu2.82Ga0.18O7,79.24,cuprate
Hg0.92Ba2.05Cu1.03O4.079,79.2,cuprate
La1.25Ca0.45Ba1.3Cu3O7.135,79.2,cuprate
La1.25Ca0.5Ba1.25Cu3O7.137,79.2,cuprate
Tm0.99Ca0.01Ba2Cu4O8,79.2,cuprate
Y0.85Pr0.15Ba2Cu3O6.98,79.2,cuprate
Y1Ba1.4Sr0.6Cu4O8,79.166667,cuprate
Hg1Ba2Cu1O4.055,79.1,cuprate
Y1Ba2Cu2.97Zn0.03O6.97,79.1,cuprate
Y1Ba1.8La0.2Cu3O7,79.05,cuprate
Ba1.6Sr0.4Yb0.65Ca0.35Cu3O6.52,79,cuprate
Bi1.6Pb0.4Sr1.6Ca1Nd0.4Cu2O8.17,79,cuprate
Bi2Sr2Ca0.7Y0.3Cu2I1O8,79,cuprate
Eu1Ba2Cu2.95Ga0.05O6.78,79,cuprate
Ho1Ba1Sr1Cu3O6.94,79,cuprate
La1.1Ba1.5Ca0.4Cu3O7.06,79,cuprate
La1.5Gd0.5Ba2Ca1Cu5O11.892,79,cuprate
La1.5Nd0.5Ca1Ba2Cu5O11.583,79,cuprate
La1Er1Ba2Ca2Cu6O14.122,79,cuprate
La1Gd1Ba2Ca2Cu6O14.1,79,cuprate
La2.1Gd0.7Ca1.4Ba2.8Cu0.7O16.471,79,cuprate
La2.1Y0.7Ca1.4Ba2.8Cu7O16.433,79,cuprate
La2.4Ca1.2Ba2.4Cu6O14.082,79,cuprate
La2.5Ca1Ba2.5Cu6O14.146,79,cuprate
Lu0.9Pr0.1Ba1.7Sr0.3Cu3O6.95,79,cuprate
Tl1Sr1.5Gd0.5Ca1Cu2O7,79,cuprate
Y0.1La0.9Ba2Cu3O7.05,79,cuprate
Y0.85Ca0.15Ba2Cu3O6.9,79,cuprate
Y0.8Ca0.2Ba2Cu3O6.86,79,cuprate
Y0.95Sc0.05Ba2Cu4O8,79,cuprate
Y0.9Ca0.1Ba1.9La0.1Cu4O7.8,79,cuprate
Y1Ba1.2Sr0.8Cu4O7.9,79,cuprate
Y1Ba1.6Sr0.4Cu4O7.9,79,cuprate
Y1Ba1.85Cu2.85Co0.15O7.04,79,cuprate
Y1Ba1Sr1Cu3O6.94,79,cuprate
Ca0.4Ba1.25La1.25Cu3O7.14,78.8,cuprate
Ca0.4Ba1.35La1.25Cu3O7.15,78.8,cuprate
Er0.8Hf0.2Ba2Cu3O6.772,78.8,cuprate
Yb1Ba2Cu4O8,78.8,cuprate
Bi2Sr1.7Ca1.3Cu2O8.211,78.7,cuprate
Y0.99Ca0.01Ba2Cu4O8,78.7,cuprate
Nd1Ba2Cu3O6.86,78.6,cuprate
Bi1.7Pb0.3Sr2Ca0.96Y0.04Cu2O8.06,78.5,cuprate
Nd0.4Ca0.6Ba0.6La0.4Cu3O6.71,78.5,cuprate
Nd1Ba1.6Sr0.4Cu3O6.721,78.5,cuprate
Sm1.1Ba1.9Cu3O7.05,78.5,cuprate
Y1Ba1.4Sr0.6Cu4O7.8,78.5,cuprate
Y1Ba2Cu2.85Ga0.15O7,78.49,cuprate
Y0.8Ca0.1Pr0.1Ba2Cu3O7.01,78.4,cuprate
Y1Ba2Cu3.99Ni0.01O8,78.4,cuprate
Y0.87Pr0.13Ba2Cu3O7,78.35,cuprate
Y1Ba2Cu2.94Co0.06O7,78.3,cuprate
Y1Ba2Cu4O7.9,78.3,cuprate
Er1Ba2Cu3O6.78,78.2,cuprate
Gd1Ba2Cu3H1.32O6.89,78.2,cuprate
Y0.8Ca0.2Ba2Cu3O6.89,78.2,cuprate
Y0.84Sr1.16Ba1Cu2.78S0.22O7,78.1,cuprate
Y1Ba2Cu3O6.876,78.1,cuprate
Ba1.6Sr0.4Yb0.65Ca0.35Cu3O6.53,78,cuprate
Ba2Ca3Cu4F1.6O8.4,78,cuprate
Bi0.2Pb0.4S0.4Sr2Ca0.7Nd0.3Cu2O6.99,78,cuprate
Bi2Sr2Ca1Cu1.98Ni0.02O8,78,cuprate
Bi2Sr2Ca1Cu2O8.198,78,cuprate
Bi2Sr2Ca1Cu2O8.216,78,cuprate
Dy1Ba2Cu2.94Fe0.06O6.88,78,cuprate
Er1Ba1Sr1Cu3O6.94,78,cuprate
Hg1Ba2Cu1O4.17,78,cuprate
Hg1Ba2Cu1O4.31,78,cuprate
La1.5Er0.5Ba2Ca1Cu5O11.907,78,cuprate
La1.5Nd0.5Ba2Ca1Cu5O7.123,78,cuprate
La1.5Nd0.5Ca1Ba2Cu5O11.872,78,cuprate
La1.7Nd0.3Ca0.6Ba2Cu4.6O11.892,78,cuprate
La1Ba1.5Ca0.5Cu3O7.011,78,cuprate
La2.375Ca1.25Ba2.375Cu6O14.062,78,cuprate
Lu0.8Ca0.2Ba2Cu3O6.68,78,cuprate
Pb2Sr2Y0.5Ca0.5Cu3F0.8115O7.3458,78,cuprate
Sm1Ba2Cu2.96Fe0.04O6.81,78,cuprate
Sr1.5Ba0.5Y1Cu2.8Ti0.2O7.2,78,cuprate
Tl1Sr1.5Er0.5Ca1Cu2O7,78,cuprate
Tm1Ba2Cu3O6.71,78,cuprate
Y0.6Ca0.4Ba1.6La0.4Cu3O6.96,78,cuprate
Y0.75Eu0.25Ba2Cu4O8,78,cuprate
Y0.7Ca0.3Ba1.7La0.3Cu3O6.96,78,cuprate
Y0.7Ca0.3Ba2Cu3O6.78,78,cuprate
Y0.85Ca0.15Ba2Cu3O6.71,78,cuprate
Y0.8Ca0.2Ba1.8La0.2Cu3O6.96,78,cuprate
Y0.9Tb0.1Ba2Cu4O8,78,cuprate
Y1Ba0.5Sr1.5Cu3O6.98,78,cuprate
Y1Ba1.8La0.2Cu3O6.95,78,cuprate
Y1Ba1.8Sr0.2Cu4O7.9,78,cuprate
Y1Ba1.9Sr0.1Cu4O7.9,78,cuprate
Y1Ba2Cu3.996Ni0.004O8,78,cuprate
Y1Sr2Mo0.25Cu2.75O7.54,78,cuprate
Y2Ba4Cu7O14.85,78,cuprate
Y2La0.4Ba3.6Cu6O13.91,78,cuprate
Tm0.8Pr0.2Ba2Cu3O6.95,77.9,cuprate
Y0.74Ca0.16Sr0.6Ba1.5Cu2.78S0.22O7,77.9,cuprate
La1.25Ca0.4Ba1.35Cu3O7.141,77.8,cuprate
Y1Ba2Cu3.98Ga0.02O8,77.75,cuprate
Gd0.5Ca0.35Mo0.15Ba2Cu3O6.586,77.7,cuprate
Y1Ba1.8Sr0.2Cu4O8,77.7,cuprate
Bi2Sr1.6Ca1.4Cu2O8.16,77.6,cuprate
Y0.7Ca0.15Pr0.15Ba2Cu3O6.95,77.6,cuprate
Er0.88Ca0.12Ba2Cu2.28Co0.18O6.93,77.5,cuprate
Er0.88Ca0.12Ba2Cu2.82Co0.18O6.93,77.5,cuprate
Hg0.5Fe0.5Sr2Y0.4Ca0.6Cu2O6.67,77.5,cuprate
La3Ca0.9Cd0.1Ba3Cu7O16.611,77.5,cuprate
Nd1.08Ba1.92Cu3O6.17,77.5,cuprate
Y1Ba2Cu3.96Ga0.04O8,77.5,cuprate
Y1Ba2Cu4O7.8,77.5,cuprate
Dy0.85Pr0.15Ba2Cu3O6.9,77.4,cuprate
Ho0.97Ca0.03Ba2Cu4O8,77.4,cuprate
Er0.7Ca0.15Hf0.15Ba2Cu3O6.821,77.3,cuprate
Sm1.15Ba1.85Cu3O6.95,77.3,cuprate
Y1Ba1.8La0.2Cu3O7.05,77.3,cuprate
Y1Ba2Cu2.85Ni0.15O6.97,77.2,cuprate
Y1Ba2Cu2.88Ni0.18O7,77.2,cuprate
Y0.65Ca0.15Pr0.2Ba2Cu3O6.95,77.1,cuprate
Y0.7Ca0.1Pr0.2Ba2Cu3O6.95,77.1,cuprate
Dy1Ba1Sr1Cu3O6.9,77.05,cuprate
Al1Sr2Ca2Cu3O9.9,77,cuprate
Ba1.6Sr0.4Yb0.65Ca0.35Cu3O6.63,77,cuprate
Bi2Sr2Ca1Cu1.97Ni0.03O8,77,cuprate
Cu2W0.2Sr2Y1O7.3,77,cuprate
Er0.76Ca0.24Ba1.6Sr0.4Cu2.76Co0.24O6.88,77,cuprate
Eu1Ba2Cu3O6.76,77,cuprate
Ge0.4Cu3Sr2Ca1.7Y0.3O9.3,77,cuprate
Ge0.5Cu3Sr2Ca1.8Y0.2O9.3,77,cuprate
Hg0.8Nd0.2Ba2Cu1O4.3,77,cuprate