Formula,Tc,Materials_family
H0.55La0.89Sr0.11Cu0.995Fe0.005O4,13.2,cuprate
La0.2Pb0.8Mo6.35S8,13.2,others
La1.85Sr0.15Cu0.9825Co0.0175O4,13.2,cuprate
Zr0.05Mo0.95C1,13.2,others
Pb0.9Mo5.1S6,13.2,others
Nb0.35Ti0.65N0.97,13.2,others
W0.3Nb0.7C1,13.2,others
W0.2Nb0.8C1,13.2,others
Zr0.3V2.7Si1,13.2,others
Sr1Fe1.752Co0.248As2,13.2,iron-based
Sr1Fe1.7Co0.3As2,13.2,iron-based
Pb0.026V0.003Ga0.974,13.2,others
Zr1N1Cl0.7,13.166667,others
Fe1Se0.164Te0.656,13.1,iron-based
Fe1S0.02Se0.4Te0.58,13.1,iron-based
Mo0.9Ti0.1C1,13.1,others
Nb0.25Mo0.75C1,13.1,others
Nb0.5Mo0.5C1,13.1,others
W0.25Nb0.75C1,13.1,others
Nb0.8Cr0.02Ga0.18,13.1,others
Nb0.8Fe0.02Ga0.18,13.1,others
V3Ga0.957Ge0.043,13.1,others
V0.745Al0.027Ga0.228,13.05,others
La3Ni2B2N3,13.0325,heavy-Fermion
Ba0.812K0.188Fe2As2,13,iron-based
Ba1.6Sr0.4Yb0.8Ca0.2Cu3O6.04,13,cuprate
Bi1.95Sr1.65La0.4Cu1F0.8O5.4,13,cuprate
C0.9N0.1Sr2Cu1O5.35,13,cuprate
Y0.9Zn0.1C1.45,13,others
Pt3.8Ca10Fe9.2As18,13,iron-based
Pt4.05Ca10Fe8.95As18,13,iron-based
Ca1Fe2P0.075As1.925,13,iron-based
Ca1Li2,13,others
Mo0.56Co0.44,13,others
Dy1Ba2Cu2.8Zn0.2O6.95,13,cuprate
Fe0.99Zn0.01Se0.3Te0.7,13,iron-based
Fe1.013Se0.3Te0.7,13,iron-based
Fe1.02S0.1Se0.4Te0.5,13,others
K0.08Zr1N1Cl1,13,others
La1.763Sr0.237Cu1O4,13,cuprate
La1.76Sr0.24Cu0.995Zn0.005O4,13,cuprate
La1.79Nd0.1Ba0.11Cu1O4,13,cuprate
La1.85Ca0.989Sr0.161Cu2O5.93,13,cuprate
La2.8Ba3.2Cu6O14.07,13,cuprate
Li0.3Ti1.1S2,13,others
Mo6Sn1S7,13,others
K2Na1H2.52C60N0.84,13,others
W0.35Nb0.65C1,13,others
Nb2.778Ti0.222Al1,13,others
Nb0.773Al0.023Ge0.023Sn0.181,13,others
Nb0.779Al0.055Ge0.055Sn0.111,13,others
Nd0.925Gd0.925Ce0.15Cu1O4,13,cuprate
Nd1.3Ba1.3Ca0.4Cu3O6.912,13,cuprate
Nd1.85Ce0.15Cu0.99Fe0.01O4,13,cuprate
Nd2Cu1F0.2O4,13,cuprate
Pr0.8Sr0.2Fe0.97Zn0.03As1O1,13,iron-based
Pr1.665Y0.185Ce0.15Cu1O4,13,cuprate
Pr1.83Ce0.17Cu1O3.99,13,cuprate
S1,13,others
Sm1.665Gd0.185Ce0.15Cu1O4,13,cuprate
Bi1Sr0.5Rb0.5O3,13,others
Sr1.75K0.25Cu1C1O5,13,cuprate
Tl1Ba0.2Ca0.8La1Cu1O5,13,cuprate
Y1.8Zr0.2C2.9,13,others
Y1Ni1.85Cu0.15B2C1,13,others
Y1Sr2Cu2.7Co0.3O6.5,13,cuprate
Zr1N1Cl1,13,others
Ba1Fe1.925Ni0.075As2,12.95,iron-based
V3Al0.5Ga0.5,12.9,others
La0.9Th0.1C1.5,12.9,others
Y0.7Ti0.3C1.5,12.9,others
Fe1Se0.2Te0.8,12.9,iron-based
Mg0.5B2Al0.5,12.9,others
Mo0.84V0.16C1,12.9,others
Nb0.24Tc0.76,12.9,others
Ru0.8Rh0.2Sr2Gd1Cu2O8,12.9,cuprate
Sr1Fe1.6Co0.4As2,12.9,iron-based
Y1.4Ti0.6C3,12.9,others
Pt0.075Au0.175Nb0.75,12.85,others
V3Si0.8Sn0.2,12.85,others
Ba0.2K0.8Fe2As2,12.8,iron-based
Ba1Fe1.774Co0.226As2,12.8,iron-based
La1.85Sr0.11Ho0.04Cu1O4,12.8,cuprate
Mo0.84Ti0.16C1,12.8,others
Mo0.8V0.2C1,12.8,others
Nb0.03Tc0.97,12.8,others
Nb0.06Tc0.94,12.8,others
Nb1N1.08O0.27,12.8,others
Nd1.83Ce0.17Cu1O4,12.8,cuprate
Pr0.9Sr0.1Fe1As1O1,12.8,iron-based
Nb0.3V2.7Si1,12.8,others
Sm1Ba2Cu3O6.55,12.8,cuprate
Ti0.013V0.987,12.8,others
Y1Ru0.02Ni1.98B2C1,12.8,others
Re0.3Mo0.7,12.75,others
Ba0.81K0.19Fe2As2,12.733333,iron-based
Bi1Ba0.45K0.55O3,12.7,others
Fe1.02Se0.15Te0.85,12.7,iron-based
Fe1.03Se0.3Te0.7,12.7,iron-based
Fe1Se0.492Te0.328,12.7,others
V3Ga0.8In0.2,12.7,others
La1.882Ba0.118Cu0.99Ni0.01O4,12.7,cuprate
La1.9Th0.1C1.35,12.7,others
Hf0.05Mo0.95C1,12.7,others
Nb0.85Mo0.15C1,12.7,others
Nb0.785Al0.096Ge0.096Sn0.022,12.7,others
Pb1Mo6S7.9Se0.1,12.7,others
Y1Mn0.1Ni1.9B2C1,12.7,others
Zr0.12N1Cl1,12.7,others
La1Fe0.925Co0.075As1O1,12.66,iron-based
Nb1Al0.5Ge0.5,12.6,others
Fe1Se0.45Te0.55,12.6,iron-based
La1.85Sr0.15Cu0.982Zn0.018O4,12.6,cuprate
Pb1Mo6.35S8,12.6,others
Mo6Sn1S8,12.6,others
Pt0.3Sr1Fe1.7As2,12.6,iron-based
V0.737Al0.05Ga0.213,12.6,others
V0.75Al0.0375Si0.2125,12.6,others
V2.799Cr0.201Ga1,12.6,others
Y0.85Tb0.15Ni2B2C1,12.54,others
Nb2.1V0.9Al1,12.5,others
Pt0.3Au0.7Nb3,12.5,others
Mo0.47B0.03C0.51,12.5,others
Pb0.85Bi0.15Ba1.9K0.1O4,12.5,others
Ba1Mn0.02Fe1.86Co0.12As2,12.5,iron-based
Ba1Mo0.026Fe1.974As2,12.5,iron-based
Pb0.75Bi0.25Ba1O3,12.5,others
Bi2Sr1.6Eu0.4Cu1O6.301,12.5,cuprate
W0.4Nb0.6C1,12.5,others
Fe1.03Se0.25Te0.75,12.5,iron-based
Fe1.053Se0.3Te0.7,12.5,iron-based
Ca4Ti0.66Fe2Al1.34As2O6,12.5,iron-based
V0.8Ga0.2,12.5,others
Nb2.4V0.6Ga1,12.5,others
La1.725Nd0.15Sr0.125Cu1O4,12.5,cuprate
La3Ni2B2N2.7,12.5,heavy-Fermion
Li0.4Zr1N1Cl1,12.5,others
Pb1Mo5S7,12.5,others
W0.5Nb0.5C1,12.5,others
Nb1P1S1,12.5,others
Nb0.781Al0.073Ge0.073Sn0.073,12.5,others
Nb0.8Cr0.025Ga0.175,12.5,others
Pr1.11Gd0.74Ce0.15Cu1O4,12.5,cuprate
Sm1Ru0.3Fe0.7As1O0.85F0.15,12.5,iron-based
Eu0.15Sr0.85Fe1.76Co0.24As2,12.5,iron-based
Sr2Cu1C0.95B0.05O5,12.5,cuprate
La1.885Sr0.115Cu0.9925Zn0.0075O4,12.45,cuprate
Pb1Mo6S8,12.45,others
Pt3.51Ca10Fe9.49As18,12.44,iron-based
Y0.9Cr0.1C1.45,12.4,others
La1.84Ba0.16Cu0.99Zn0.01O4,12.4,cuprate
Hf0.05Mo0.95C0.74,12.4,others
Nb0.8Ni0.02Ga0.18,12.4,others
Nb3Sn0.4Sb0.6,12.4,others
Y1.8Cr0.2C2.9,12.4,others
V0.75Ga0.05Si0.2,12.33,others
Ba1Pd0.054Fe1.946As2,12.3,iron-based
V0.778Ga0.222,12.3,others
La1.901Ba0.099Cu1O4,12.3,cuprate
La1.9Sr0.1Cu0.99Ni0.01O4,12.3,cuprate
Lu1Co0.1Ni1.95B2C1,12.3,heavy-Fermion
Hf0.15Nb0.85N0.94,12.3,others
Nb1N1.22O0.18,12.3,others
Eu0.3Pb0.7Mo6.35S8,12.3,others
Yb0.1Pb0.9Mo6Se8,12.3,others
Eu0.72Sr0.28Fe1.76Co0.24As2,12.3,iron-based
V0.725Al0.072Ga0.203,12.3,others
Ta0.198V2.802Ga1,12.3,others
Y1Ba2Cu3O6.346,12.3,cuprate
Nb0.51Mo0.49C1,12.22,others
Eu0.15Ca0.85Fe1As2,12.2,iron-based
Fe1S0.05Se0.3Te0.65,12.2,iron-based
V0.719Ga0.281,12.2,others
La0.25Bi1K0.75O3,12.2,others
Sr0.3K0.7Fe2As2,12.2,iron-based
La0.2Bi1K0.8O3,12.2,others
La1Fe0.973Zn0.027As1O0.68F0.28,12.2,iron-based
Li0.13Zr1N1Cl1,12.2,others
Mo1B0.01C0.82,12.2,others
Ta0.125Nb0.5V0.125Sn0.25,12.2,others
Ta0.5Nb2V0.5Sn1,12.2,others
Nb0.8Co0.02Ga0.18,12.2,others
Yb0.2Pb0.8Mo6Se8,12.2,others
Pr1Fe0.9Co0.1P0.15As0.85O1,12.2,iron-based
Sm0.9Pr0.1Ba2Cu3O6.55,12.2,cuprate
Tl1Mo6Se7.5,12.2,others
V0.741Al0.063Ga0.196,12.2,others
V0.75Si0.2Ge0.05,12.15,others
V0.7016Cr0.0484Ga0.25,12.14,others
Mo1C0.69,12.1,others
V0.704Ga0.296,12.1,others
Gd0.51Pr1.34Ce0.15Cu1O1,12.1,cuprate
Li1.04Ti1.96O4,12.1,others
Nb1N0.89,12.1,others
Rb2Na1H2.7C60N0.9,12.1,others
Nb0.3Mo0.7C1,12.1,others
Nb0.95Mo0.05C1,12.1,others
Sr1Fe1.76Co0.2Zn0.04As2,12.1,iron-based
V0.767Al0.147Ga0.086,12.1,others
V0.767Al0.022Ga0.214,12.1,others
Y1Pd0.7Ni1.3B2C1,12.1,others
Y1Pd0.5Ni1.5B2C1,12.1,others
Y1Pt0.4Ni1.6B2C1,12.1,others
Ta1C0.148N0.638,12.01,others
La1Fe0.95Co0.05As1O1,12.01,iron-based
B0.015C0.985,12,others
Ba0.7K0.3Fe1.66Co0.34As2,12,iron-based
Ba0.7K0.3Fe1.72Co0.28As2,12,iron-based
Ba0.816K0.184Fe2As2,12,iron-based
Bi2Sr1.9La0.1Cu1O6.2,12,cuprate
Mo1C0.681,12,others
Nb1C0.985,12,others
Ca1Fe1.73Co0.27As2,12,iron-based
Cu2Ga0.25Sr2Y1.3Ce0.7O8.6,12,cuprate
Fe0.98Zn0.02Se0.3Te0.7,12,iron-based
Hg0.75Mo0.25Ba2Cu1O4.59,12,cuprate
La1.35Sm0.45Sr0.2Cu1O4,12,cuprate
La1.64Nd0.2Ba0.16Cu1O4,12,cuprate
La1.75Nd0.1Ba0.15Cu1O4,12,cuprate
La1.85Sr0.15Cu1O3.987,12,cuprate
La1.931Sr0.069Cu1O4,12,cuprate
La1Rh0.05Fe0.95As1O1,12,iron-based
Cs1Li2C60,12,others
Na1Li2C60N1,12,others
Mo0.3Tc0.7,12,others
Re0.43Mo0.57,12,others
Mo0.8Ti0.2C1,12,others
W0.2Mo0.8C1,12,others
Hf0.05Mo0.95C0.73,12,others
K3Na1H2.16C60N0.72,12,others
Rb2Na1H2.58C60N0.86,12,others
Na0.5Fe1As1,12,iron-based
Nb0.75Mo0.25C1,12,others
Nd0.74Gd1.11Ce0.15Cu1O4,12,cuprate
Nd1.85Ce0.15Cu0.975Zn0.025O4,12,cuprate
Pr0.8Sr0.2Fe0.94Zn0.06As1O1,12,iron-based
Sm1.71125Y0.13875Ce0.15Cu1O4,12,cuprate
Sr0.2La1.8Cu0.99V0.01O4,12,cuprate
Sr0.7Ba1.3Y1Cu2.8Al0.2O7.03,12,cuprate
Eu0.19Sr0.81Fe1.76Co0.24As2,12,iron-based
V0.743Al0.076Ga0.181,12,others
Y0.5Pr0.5Ba2Cu3O6.96,12,cuprate
Y0.75Dy0.25Ni2B2C1,12,others
Y0.85Pr0.15Ni2B2C1,12,others
Y0.9Gd0.1Ni2B2C1,12,others
Y1.8Th0.2C2.7,12,others
Y1Sr2Cu2.7Ti0.3O7.144,12,cuprate
Nb3Ge0.5Sn0.5,11.95,others
Lu0.75Th0.25Rh4B4,11.93,heavy-Fermion
Pr1.85Ce0.15Cu0.995Ni0.005O4.065,11.92,cuprate
Fe0.03Se0.1Te0.9,11.9,others
Fe1.03Se0.1Te0.9,11.9,iron-based
Mg0.02Li0.98Ti2O4,11.9,others
Hf0.1Mo0.9C1,11.9,others
Nb1N1.25O0.25,11.9,others
Nd1Mn0.03Fe0.97As1O0.89F0.11,11.9,iron-based
V2.793Ni0.207Ga1,11.9,others
V2.7Mn0.3Si1,11.9,others
V3Ga0.8Si0.2,11.9,others
Y0.9Ce0.1Ni2B2C1,11.9,others
Li1Ti2O4,11.872727,others
Pt3.474Ca10Fe9.526As18,11.85,iron-based
La1Ir0.075Fe0.925As1O1,11.85,iron-based
Nb2.7Mo0.3Al1,11.85,others
Ta1C0.017N0.632,11.84,others
Ta1C0.97,11.84,others
Ba0.5K0.5Fe1.8Cu0.2As2,11.83,iron-based
Ba0.8Na0.2Fe2As2,11.8,iron-based
Ce1Fe1As1O0.95F0.05,11.8,iron-based
Fe0.97Zn0.03Se0.3Te0.7,11.8,iron-based
Li1.08Ti1.92O4,11.8,others
Dy0.2Lu0.8Ni2B2C1,11.8,heavy-Fermion
Re0.34Mo0.66,11.8,others
Mo1B0.03C0.82,11.8,others
K2Na1H2.25C60N0.75,11.8,others
Nb0.8Ni0.03Ga0.17,11.8,others
Zr0.61Rh0.285O0.105,11.8,others
Ta0.05Mo0.95C1,11.8,others
V0.746Al0.085Ga0.169,11.8,others
V0.75Al0.05Si0.2,11.8,others
Y1Pd1.2Ni0.8B2C1,11.8,others
Y1Pd0.18Ni1.82B2C1,11.8,others
Y1Co0.06Ni1.94B2C1,11.8,others
Y1Pd1Ni1B2C1,11.8,others
Hf1Ru1P1,11.796667,others
Dy0.228Lu0.772Ni2B2C1,11.77,heavy-Fermion
Li1.035Ti1.965O4,11.75,others
La1.937Sr0.063Cu1O4,11.7,cuprate
Li0.6Zr1N1Cl1,11.7,others
Mo0.3Si1,11.7,others
W0.1Mo0.9C1,11.7,others
Nb3Al0.55Ge0.45,11.7,others
Nd0.75Pr0.25Ba2Cu3O6.96,11.7,cuprate
Pb1Mo6O2S6,11.7,others
Pt0.15Sr1Fe1.85As2,11.7,iron-based
Lu0.3Th1.4C3,11.7,others
V0.747Al0.122Ga0.131,11.7,others
V0.75Al0.1Ge0.15,11.7,others
V0.77Al0.02Si0.21,11.7,others
Mo0.201V2.799Ga1,11.7,others
Nb1C0.98,11.68,others
Nb0.15Mo0.85C1,11.673,others
La1Fe1P0.85As0.15O1,11.67,iron-based
Ru0.9Nb0.1Sr2Gd1Cu2O8,11.65,cuprate
Fe1.02S0.2Se0.3Te0.5,11.64,others
Re0.4Mo0.6,11.633333,others
Ba1Fe1.906Co0.042Cu0.052As2,11.6,iron-based
Yb0.5Pt3Ca9.5Fe10As18,11.6,iron-based
Fe1.18Se0.4Te0.6,11.6,iron-based
Gd1Ir0.3Fe0.7As1O1,11.6,iron-based
Y0.5Ho0.5Ni2B2C1,11.6,others
La1.85Sr0.15Cu0.971Ni0.029O4,11.6,cuprate
La1.85Sr0.15Cu0.988Fe0.012O4,11.6,cuprate
Li0.18Zr1N1Cl1,11.6,others
W0.1Nb0.9C1,11.6,others
Nb0.8Fe0.03Ga0.17,11.6,others
Nd1.85Ce0.15Cu0.995Ni0.005O4,11.6,cuprate
Lu0.8Th1.2C3,11.6,others
Y2C2Br0.5I1.5,11.6,others
La1.9Sr0.1Cu0.99Zn0.01O4,11.59,cuprate
Y1Ni1.8Cu0.2B2C1,11.55,others
Y0.9V0.1C1.45,11.5,others
Y1C1.45,11.5,others
Fe1Se0.075Te0.925,11.5,iron-based
K0.26Zr1N1Cl1,11.5,others
Re0.38Mo0.62,11.5,others
Hf0.16Mo0.84C1,11.5,others
Zr0.1Mo0.9C1,11.5,others
Mo1B0.05C0.82,11.5,others
Nb0.8Cr0.03Ga0.17,11.5,others
Nb2.73Ti0.27Al1,11.5,others
Pr0.8Sr0.2Fe0.8Co0.2As1O1,11.5,iron-based
V0.767Al0.053Ga0.18,11.5,others
W0.117V2.883Ga1,11.5,others
V3Ga0.937In0.063,11.5,others
Y1.8V0.2C2.9,11.5,others
Bi1Sr0.4K0.6O3,11.421667,others
La1Fe1P0.8As0.2O1,11.42,iron-based
Ba1Fe1.772Co0.228As2,11.405,iron-based
Li2.6Ti1.7O4,11.4,others
Hf0.2Mo0.8C1,11.4,others
Au0.98Nb3Rh0.02,11.4,others
V0.741Al0.107Ga0.152,11.4,others
V0.75Al0.0625Ge0.1875,11.4,others
Cs1Na2C60,11.328571,others
Tc0.9V0.1,11.32,others
Ca1C6,11.303,others
Pb0.3Bi0.7Ba0.6K0.4O3,11.3,others
Pb0.6Bi0.4Ba0.9K0.1O3,11.3,others
Ba1Fe1.935Ni0.065As2,11.3,iron-based
Y0.9C1.35Si0.1,11.3,others
Mo6Cu1.6S8,11.3,others
Fe0.98Ni0.02Se0.82,11.3,iron-based
Fe1S0.06Se0.25Te0.69,11.3,iron-based
W0.6Mo0.4C1,11.3,others
W0.4Mo0.6C1,11.3,others
Nb1N0.7,11.3,others
Nb1N1.34O0.27,11.3,others
V2.7Cr0.3Si1,11.3,others
Sm0.85Gd1Ce0.15Cu1O3.97,11.3,cuprate
V0.75Al0.12Ge0.13,11.3,others
Y1.8C2.7Si0.2,11.3,others
Y1Ba2Cu2.6Co0.4O7.03,11.3,cuprate
Li1.05Ti1.95O4,11.25,others
Re0.425Pt0.05Mo0.55,11.25,others
Zr0.67Rh0.33,11.25,others
Tc0.8V0.2,11.24,others
La1Mo6Se8,11.233333,others
Pb0.7Bi0.3Ba1O3,11.23,others
Zr0.31Mo1.69B5,11.2,others
Y0.9Ru0.1C1.35,11.2,others
Gd0.6Pr0.4Ba2Cu3O6.95,11.2,cuprate
La1.79Sr0.21Cu0.98Ru0.02O4,11.2,cuprate
Li2.6Ti1.9O4,11.2,others
Nb0.78Mn0.01Ga0.21,11.2,others
Nb0.8Mn0.01Ga0.19,11.2,others
Zr0.66Rh0.33,11.2,others
V0.75Al0.225Ge0.025,11.2,others
Cd0.006V3Ga0.994,11.2,others
V3Al0.24Si0.76,11.2,others
Y0.9Pr0.1Ni2B2C1,11.2,others
Y1.8Ru0.2C2.7,11.2,others
Y2C2Br0.4I1.6,11.2,others
V3Al0.3Ge0.7,11.17,others
Zr2Rh1,11.165,others
Au0.25Nb0.75,11.1,others
Ba0.5K0.5Fe1.8Ni0.2As2,11.1,iron-based
Pr0.067Bi0.933Ba0.6K0.4O3,11.1,others
Ba1Fe1.776Co0.224As2,11.1,iron-based
La1.8Sr0.2Cu0.9727Zn0.0273O4,11.1,cuprate
Mg0.31B2Al0.69,11.1,others
Mn0.2Fe0.8Se0.85,11.1,iron-based
Re0.48Mo0.52,11.1,others
Ta0.5Nb0.5C1,11.1,others
V0.75Al0.075Si0.175,11.1,others
H0.08Zr2Rh1,11.1,others
Tc0.75V0.25,11.07,others
Li1.07Ti1.93O4,11.05,others
Os1Mo3,11.0225,others
La1Fe0.9Co0.1As1O1,11.02,iron-based
V3Al0.2Ge0.8,11.02,others
Bi1Ba0.47K0.53O3,11,others
Ba0.82K0.18Fe1.654Co0.346As2,11,iron-based
Ba0.86K0.14Fe1.68Co0.32As2,11,iron-based
Pb0.95Bi0.05Ba1.7K0.3O4,11,others
Pb0.9Bi0.1Ba1.7K0.3O4,11,others
Ba1Fe1.81Co0.11Zn0.08As2,11,iron-based
Ba1Fe1.9Se3,11,iron-based
Ba1Fe2Se3,11,iron-based
Bi1Pb1Sr0.12Pr0.12Cu1O6,11,cuprate
La1C1.35,11,others
Nd0.19Ca0.81Fe1As2,11,iron-based
Ca1.8Na0.2Cu1Br2O2,11,cuprate
Mo4Cu1S5,11,others
Eu0.65La1.2Ce0.15Cu1O4,11,cuprate
Fe1.013Se0.32Te0.68,11,iron-based
Fe1.049Se0.2Te0.8,11,iron-based
Fe1.04Se0.05Te0.95,11,iron-based
Sc3Ba4Fe2As2O7.5,11,iron-based
Gd1.4Ce0.6Sr2Cu2Ti1O10,11,cuprate
K0.8Fe1.988Co0.012Se2,11,iron-based
K0.8Cr0.007Fe1.993Se2,11,iron-based
La0.94Mo6Se8,11,others
La1.52Nd0.4Ba0.08Cu1O4,11,cuprate
La1.685Nd0.2Sr0.115Cu1O4,11,cuprate
La1.6Nd0.2Ba0.2Cu1O4,11,cuprate
La1.86Ba0.14Cu0.99Ni0.01O4,11,cuprate
La1Pt1.5Au0.6B2.4C1.2,11,heavy-Fermion
Li0.8H1Fe1.2O1S0.77Se0.23,11,others
Mg0.1Li0.9,11,others
Li1.3Zr1N1Cl1,11,others
Mn0.1Fe0.9Se0.85,11,iron-based
Zr0.16Mo0.84C1,11,others
Pb0.9Mo6.35Sn0.12S8,11,others
K2Na1H2.61C60N0.87,11,others
Na1.38Zr1N1Cl1,11,others
W0.8Nb0.2C1,11,others
Au0.95Nb3Rh0.05,11,others
Nb0.8Co0.03Ga0.17,11,others
Nd1.85Ce0.15Cu0.97Zn0.03O4,11,cuprate
Pr1.5725Y0.2775Ce0.15Cu1O4,11,cuprate
Bi1.4Rb0.6O3,11,others
Bi1.3Rb0.7O3,11,others
Bi1.1Rb0.9O3,11,others
Bi1Rb1O3,11,others
Zr0.88Rh0.12,11,others
Sm1H0.16Fe1P0.45As0.55O0.84,11,iron-based
Sr1Fe1.732Co0.268As2,11,iron-based
Zr1Ru4P2,11,others
Tc0.95V0.05,10.99,others
Y1Rh4B4,10.95775,others
Mo3Cu1S4,10.94,others
Ta1C0.571N0.271,10.92,others
Nb1B2.6,10.9,others
Lu0.25Pt3Ca9.75Fe10As18,10.9,iron-based
Mo4.5Cu1.5S6,10.9,others
Fe1Se0.082Te0.738,10.9,iron-based
Gd0.51Sm1.34Ce0.15Cu1O4,10.9,cuprate
La1Ir0.1Fe0.9As1O1,10.9,iron-based
Li2.6Ti2.7O4,10.9,others
Zr0.2Mo0.8C1,10.9,others
Hf0.05Mo0.95C0.7,10.9,others
Nb0.42Tc0.58,10.9,others
Zr0.2Nb0.8,10.9,others
Nb0.792Al0.052Ge0.104Sn0.052,10.9,others
Pr1Fe0.9Co0.1P0.2As0.8O1,10.9,iron-based
Sc1Tc2,10.9,others
Ti0.3V2.7Si1,10.9,others
Eu0.1Mo6.35Sn1.08S8,10.9,others
Lu0.4Th1.6C3,10.9,others
Sm1Fe0.85Co0.15As1O1,10.875,iron-based
La1Fe1P0.8As0.2O0.95F0.05,10.87,iron-based
Nd1.85Ce0.15Cu0.98Zn0.02O4,10.85,cuprate
Y1Ni1.7Cu0.3B2C1,10.85,others
Bi1.5Pb0.5Sr1.4La0.6Cu1O6.118,10.8,cuprate
Y0.9Nb0.1C1.35,10.8,others
Ca1Fe1.7Co0.3As2,10.8,iron-based
Er0.8Lu0.2Ni2B2C1,10.8,heavy-Fermion
Cr0.01Fe1Se1,10.8,iron-based
La1.85Sr0.15Cu0.97Ru0.03O4,10.8,cuprate
La1.85Sr0.15Cu0.98Ru0.02O4,10.8,cuprate
Mo0.05Tc0.95,10.8,others
Ta0.5Nb0.25Sn0.25,10.8,others
Zr0.33Nb0.66,10.8,others
Zr0.3Nb0.7,10.8,others
Zr0.15Nb0.85,10.8,others
Ta2Nb1Sn1,10.8,others
Au0.9Nb3Rh0.1,10.8,others
V0.75Al0.075Ge0.175,10.8,others
Re0.072V2.928Ga1,10.8,others
Y1.8Nb0.2C2.7,10.8,others
Y5Os4Si15,10.8,others
H0.1Zr2Rh1,10.8,others
Au0.24Nb0.76,10.78,others
Zr0.25Nb0.75,10.775,others
Pt3.97Ca10Fe9.03As18,10.75,iron-based
Ta1C0.198N0.747,10.74,others
Hg0.4Pb0.35Bi0.25Ba1O3,10.7,others
Y0.9Ti0.1C1.35,10.7,others
Fe1Se0.656Te0.164,10.7,iron-based
Fe1S0.11Se0.89,10.7,iron-based
Zr0.1Nb0.9,10.7,others
Eu0.2Mo6.35Sn0.96S8,10.7,others
Mo6.35Sn1.2S8,10.7,others
V3Ga0.9Sn0.1,10.7,others
V3Ga0.21Si0.79,10.7,others
Y1.8Ti0.2C2.7,10.7,others
Y1Pd0.3Ni1.7B2C1,10.7,others
Y2C2Cl0.25I1.75,10.7,others
Hf0.84Nb0.16V2,10.67,others
La2C3,10.66,others
La1Pt1.5Au0.5B2C1,10.65,heavy-Fermion
Mo6Cu2S8,10.615,others
Ba0.1Fe0.9Se0.85,10.6,iron-based
Nb1C0.99,10.6,others
Y0.9C1.35Ge0.1,10.6,others
Re0.395Mo0.5,10.6,others
Re0.395Mo0.6,10.6,others
Na1Fe0.925Co0.075As1,10.6,iron-based
Zr0.35Nb0.65,10.6,others
Nb0.8Cr0.04Ga0.16,10.6,others
Nb0.8Ni0.04Ga0.16,10.6,others
Pb1Mo6S7.5Se0.5,10.6,others
Sm0.1Fe0.9Se0.85,10.6,iron-based
Sm0.7Pr0.3Ba2Cu3O6.65,10.6,cuprate
Eu0.3Mo6.35Sn0.84S8,10.6,others
V0.7Al0.1Si0.2,10.6,others
V3Ga0.9Si0.1,10.6,others
Y0.65Dy0.35Ni2B2C1,10.6,others
Y1.8C2.7Ge0.2,10.6,others
Y1Ni1.6Cu0.4B2C1,10.6,others
Li1Fe0.98Ni0.02As1,10.58,iron-based
V0.75Ga0.2Si0.05,10.58,others
Au0.242Nb0.758,10.56,others
Tc0.97Ti0.03,10.56,others
Zr0.4Nb0.6,10.525,others
Ba0.82K0.18Fe2As2,10.5,iron-based
Y0.9Ca0.1C1.35,10.5,others
Ta0.45W0.55C1,10.5,others
Ca1.825Na0.175Cu1Br2O2,10.5,cuprate
Fe1Se0.82Cl0.18,10.5,iron-based
Ir0.4Nb0.55O0.05,10.5,others
La1.675Nd0.2Sr0.125Cu1O4,10.5,cuprate
Lu1Co0.14Ni1.93B2C1,10.5,heavy-Fermion
Nb1N0.78,10.5,others
Nb0.25Ti0.75N0.98,10.5,others
Nb1Tc3,10.5,others
Nb3Sn0.35Sb0.65,10.5,others
Nd1.5725Y0.2775Ce0.15Cu1O4,10.5,cuprate
Sm1.48Gd0.37Ce0.15Cu1O4,10.5,cuprate
Sm1H0.09Fe1P0.53As0.47O0.91,10.5,iron-based
Ta0.2Mo0.8C1,10.5,others
V3Ga0.2Si0.8,10.5,others
V3Ga0.28Si0.72,10.5,others
V3Si0.986Sb0.014,10.5,others
Y1Pt2B2C1,10.5,others
Y2C2Br0.7I1.3,10.5,others
Y2C2Br0.6I1.4,10.5,others
Y0.86Gd0.14Ni2B2C1,10.475,others
Hf0.87Ta0.13V2,10.45,others
Y1Ni1.4Cu0.6B2C1,10.45,others
Bi1.95Sr1.65La0.4Cu1O6.414,10.4,cuprate
Ca0.2Ba1.55La1.25Cu3O6.98,10.4,cuprate
Mo6Cu1.8S8,10.4,others
La1.875Ba0.065Sr0.06Cu1O4,10.4,cuprate
Ta0.0935Zr0.425Nb0.4815,10.4,others
Nd1.85Ce0.15Cu0.996Co0.004O4,10.4,cuprate
W0.1Tc0.9,10.4,others
V0.73Al0.04Si0.23,10.4,others
V0.75Al0.125Si0.125,10.4,others
Mo0.09V2.91Si1,10.4,others
Y0.83Er0.17Rh4B4,10.4,others
Y1Pd0.76Ni1.24B2C1,10.4,others
Y1Pd0.66Ni1.34B2C1,10.4,others
La1Pt2.1B2.4C1.2,10.35,heavy-Fermion
Y2C2Br0.25I1.75,10.35,others
La1Mn0.001Fe0.999As1O0.89F0.11,10.336667,iron-based
Pb0.78Bi0.22Ba1O3,10.3,others
Mo6Cu1.3S8,10.3,others
Fe0.98Co0.02Se0.3Te0.7,10.3,iron-based
La1Fe0.98Co0.02As1O0.89F0.11,10.3,iron-based
La1Fe1P0.25As0.75O1,10.3,iron-based
La1Ru4As12,10.3,heavy-Fermion
Zr0.4Nb0.5Ti0.1,10.3,others
Nb0.5Ti0.5,10.3,others
Ta0.179Zr0.361Nb0.46,10.3,others
Nb0.8Fe0.04Ga0.16,10.3,others
Zr0.86Rh0.14,10.3,others
Lu0.2Th1.8C3,10.3,others
Tm1Co0.02Ni1.99B2C1,10.3,heavy-Fermion
V0.72Al0.11Si0.17,10.3,others
V0.75Al0.05Ge0.2,10.3,others
Y1Pd0.46Ni1.54B2C1,10.3,others
Zr1Ru0.95Fe0.05P1,10.3,others
Li1Fe0.95Co0.05As1,10.29,iron-based
Ta0.6Nb0.4C1,10.276667,others
Fe1S0.1Se0.9,10.27,iron-based
La1Bi1O0.6S2F0.4,10.26,others
La0.15Bi1K0.85O3,10.25,others
La0.88Mo6Se8,10.25,others
La1Pt2B2C1,10.25,heavy-Fermion
Sr1Ru0.5Fe1.5As2,10.25,iron-based
Y0.9C1.35Sn0.1,10.2,others
Mo0.83Ti0.17C1,10.2,others
Eu0.7Sr0.3Fe1.715Co0.285As2,10.2,iron-based
Ir0.125Zr0.75Rh0.125,10.2,others
La1.7Sr0.3Cu1O3.997,10.2,cuprate
La1Fe1As1O1,10.2,iron-based
La1Pt1.5Au0.6B2C1,10.2,heavy-Fermion
La2.95Ce0.05Ni2B2N2.7,10.2,heavy-Fermion
Re0.4Pt0.05Mo0.55,10.2,others
Re0.35Mo0.65,10.2,others
Hf0.33Nb0.67N1,10.2,others
Nb3.2Al0.24Ge0.4,10.2,others
Zr0.45Nb0.5Ti0.05,10.2,others
Zr0.5Nb0.5,10.2,others
Yb0.3Pb0.7Mo6Se8,10.2,others
Pu1Rh0.9Co0.1Ga5,10.2,heavy-Fermion
Eu0.5Mo6Sn0.5S8,10.2,others
Eu0.5Mo6.35Sn0.6S8,10.2,others
Pt2Sr1Ge2,10.2,others
V0.783Al0.079Ga0.138,10.2,others
V3Zn0.001Ga0.999,10.2,others
Y1.8C2.7Sn0.2,10.2,others
Y1Fe0.06Ni1.94B2C1,10.2,others
Fe1.02S0.3Se0.2Te0.5,10.16,others
Mo1C1,10.152,others
Y0.9Au0.1C1.3,10.1,others
Re1Mg1Be12,10.1,others
Mo0.6C0.4,10.1,others
Ta0.5W0.5C1,10.1,others
Fe1S0.09Se0.91,10.1,iron-based
V0.7008Mn0.0492Ga0.25,10.1,others
Gd0.75Nd1.1Ce0.15Cu1O4,10.1,cuprate
Hf0.5Zr0.5V2,10.1,others
Y0.2La0.8Mn0.025Fe0.975As1O0.89F0.11,10.1,iron-based
La1Mn0.0025Fe0.9975As1O0.89F0.11,10.1,iron-based
W0.8Mo0.2C1,10.1,others
Re0.6Nb0.1Mo0.3,10.1,others
Nb0.114Ti0.886N0.9,10.1,others
Nb0.7Ti0.3,10.1,others
Hf0.25Zr0.25Nb0.5,10.1,others
Hf0.1Zr0.4Nb0.5,10.1,others
Zr0.91Rh0.09,10.1,others
Eu0.4Mo6.35Sn0.72S8,10.1,others
V2.865Fe0.135Ga1,10.1,others
V3Al0.4Si0.6,10.1,others
Y0.45Pr0.55Ba2Cu3O6.98,10.1,cuprate
Y0.99Gd0.01Rh4B4,10.1,others
Y1.8Au0.2C2.6,10.1,others
Y1Pd0.54Ni1.46B2C1,10.1,others
Y1Ni1Cu1B2C1,10.1,others
Y2Cu2I2,10.1,others
Zr1Ru0.99Rh0.01P1,10.1,others
Lu1Rh4B4,10.093625,heavy-Fermion
Lu1Ru1B2,10.054,heavy-Fermion