Formula,Tc,Materials_family
Ir0.973Mo0.027,0.133,others
Au0.92Ga0.06In0.02,0.13,others
Ce1In3,0.13,heavy-Fermion
Cu0.82Ge0.18,0.13,others
Re0.115Ir0.46Rh0.425,0.13,others
Ir0.75Mo0.25,0.13,others
Ir0.8Ru0.2,0.13,others
Y1La3Sb3,0.13,heavy-Fermion
Ta0.03Ir0.97,0.127,others
Ag0.667Al0.333,0.126,others
Ta0.075Ir0.925,0.125,others
W0.027Ir0.973,0.125,others
Sn0.976Te1,0.125,others
Ir0.71Mo0.29,0.12,others
Cu0.84Ge0.16,0.117,others
Ag0.828Ga0.172,0.116,others
Ta0.01Ir0.99,0.116,others
Ir0.98Nb0.02,0.115,others
Ir0.98V0.02,0.115,others
Re0.02Ir0.95,0.112,others
Ag0.7Al0.3,0.11,others
Ir0.845Ru0.155,0.11,others
Ir0.925Ru0.075,0.11,others
Ir0.99V0.01,0.11,others
Mo0.5V0.5,0.11,others
Ru0.68Rh0.32,0.11,others
Sc0.05Zr0.95,0.11,others
Ir0.987Mo0.013,0.107,others
W0.013Ir0.987,0.107,others
Ag0.625Al0.375,0.106,others
Mg0.3Cd0.7,0.105,others
Ir0.89Ru0.11,0.105,others
Ir0.99Nb0.01,0.102,others
Au0.92Al0.04Ga0.04,0.101,others
Sn1Te1,0.1005,others
Ag0.65Al0.35,0.1,others
Ba0.1Sr0.9Ti1O3,0.1,others
Sr0.7Ca0.31Ti1O3,0.1,others
Ce1Cu2Si1.7Ge0.3,0.1,heavy-Fermion
V0.52Cr0.48,0.1,others
Os0.25Ir0.1Rh0.65,0.1,others
Y0.85La0.15,0.1,others
La1.85Sr0.15Cu0.982Fe0.018O4,0.1,cuprate
Mo0.33Rh0.67,0.1,others
Os0.085Ir0.765Rh0.15,0.096,others
Mo0.6Cr0.4,0.095,others
Rh1In3,0.095,others
Os0.825Ir0.0875Rh0.0875,0.095,others
Os0.174Ir0.406Rh0.42,0.095,others
Os0.15Ir0.55Rh0.3,0.095,others
Nb0.2Mo0.8,0.095,others
La0.27Pr0.73Ir2Zn20,0.093,heavy-Fermion
Sn0.98Te1,0.092,others
Ir1,0.091333,others
Ag0.775Sn0.225,0.09,others
Ag0.795Sn0.205,0.09,others
Au0.92Al0.06Ga0.02,0.09,others
Ru0.93Co0.07,0.09,others
Os0.97Rh0.03,0.09,others
Ag0.6Al0.4,0.088,others
Au0.92Al0.08,0.088,others
Sn0.97As0.005Te0.995,0.088,others
Ge0.976Te1,0.0855,others
Cu2Sb1,0.085,others
Cu0.85Ge0.15,0.084,others
Rh1,0.081384,others
Pd1V3,0.081,others
Re0.1Ir0.4Rh0.5,0.08,others
Sc0.07Zr0.93,0.08,others
Yb1B4Al1,0.08,heavy-Fermion
Pt1Bi2,0.0775,others
Au0.92Al0.07In0.01,0.0763,others
Ir0.95Rh0.05,0.075,others
U1Ru3,0.0725,heavy-Fermion
Rh0.25Cr0.75,0.072,others
Cu0.83Ge0.17,0.072,others
Rh1Cr3,0.07,others
Cu0.81Sb0.19,0.07,others
La0.04Pr0.96Ir2Zn20,0.07,heavy-Fermion
Ir0.96Pd0.04,0.069,others
Au0.92Ga0.04In0.04,0.0682,others
Au0.9In0.1,0.067867,others
Au0.92Al0.05In0.03,0.0672,others
Cu0.844Sb0.156,0.067,others
Ta0.1Ir0.9,0.067,others
Ag0.82Sn0.18,0.066,others
Ag2F1,0.066,others
Ag2I1,0.066,others
Ir0.9Pt0.1,0.066,others
Hf1,0.064,others
Os0.86Ir0.07Rh0.07,0.064,others
Ir0.8Ru0.05Rh0.15,0.064,others
Au0.92Al0.06In0.02,0.0619,others
Tl0.004Pb0.996Te1,0.061,others
Au0.92Al0.0563In0.0237,0.0609,others
Ag0.815Sn0.185,0.06,others
Ir0.89Rh0.11,0.06,others
Ir0.9Nb0.1,0.06,others
Pr1Ir2Zn20,0.06,heavy-Fermion
Sn0.97As0.017Te0.983,0.058,others
Au0.92Al0.04In0.04,0.0555,others
Ag0.825Sn0.175,0.055,others
Ir0.2Ru0.3Rh0.5,0.055,others
Os0.05Ir0.75Rh0.2,0.055,others
Cu0.86Si0.14,0.054,others
Ru0.969Fe0.031,0.054,others
Ir0.984Ni0.016,0.052,others
Sn0.97As0.015Te0.985,0.051,others
Pb2Ag5O6,0.0502,others
Ce1Ni2B2C1,0.05,heavy-Fermion
Os0.2Ir0.125Rh0.675,0.05,others
Ir0.7Ru0.1Rh0.2,0.05,others
Ir0.95Pd0.05,0.05,others
Cu0.81Ga0.19,0.048,others
Sn0.97As0.006Te0.994,0.048,others
Sn0.97As0.01Te0.99,0.048,others
Au1Al2,0.0475,others
Ag0.835Sn0.165,0.047,others
Au0.95Sn0.05,0.047,others
Cu0.786Sb0.214,0.047,others
Ir0.91Pd0.09,0.047,others
Sn0.985Te1,0.0466,others
Ir0.996Co0.004,0.046,others
Ir0.8Pt0.2,0.046,others
Au0.92Al0.03In0.05,0.045,others
Th2Al1,0.045,heavy-Fermion
Mo0.524Cr0.476,0.045,others
Au0.92Ga0.02In0.06,0.0425,others
Au0.91In0.09,0.0423,others
Os0.1Ir0.54Rh0.36,0.038,others
Sn0.97As0.007Te0.993,0.038,others
Os0.32Rh0.68,0.0376,others
Ag0.845Sb0.155,0.037,others
Ir0.83Pt0.125Pd0.045,0.037,others
Au0.84In0.16,0.035,others
Ce1.005Ni2.025Ge1.975,0.035,heavy-Fermion
Ir0.88Pd0.12,0.035,others
Au0.92Al0.02In0.06,0.034,others
Sn0.97As0.022Te0.978,0.0332,others
Ir0.7Ru0.25Rh0.5,0.033,others
Au0.95Ga0.05,0.032,others
Ir0.775Pt0.175Rh0.05,0.032,others
Ir0.9Pd0.1,0.032,others
Sn0.97As0.02Te0.98,0.0318,others
Au0.915In0.085,0.031,others
Rh1.4As1,0.03,others
La0.02Ce0.98Pt3Si1,0.03,heavy-Fermion
Ce1.005Ni2.02Ge1.98,0.03,heavy-Fermion
Mo0.43Cr0.57,0.03,others
Ir0.72Pt0.08Rh0.2,0.03,others
Ir0.8Rh0.2,0.03,others
La0.8Pr0.2Se1,0.03,others
Mo0.28Rh0.72,0.03,others
Pr1V2Al20,0.029667,heavy-Fermion
Ir0.815Rh0.185,0.028,others
Au0.92Al0.01In0.07,0.0278,others
Sn0.99Te1,0.02625,others
Ir0.75Rh0.25,0.026,others
Ag0.845Sn0.155,0.025,others
Cu0.86Ge0.14,0.025,others
Rb1C8,0.0241,others
Au0.92In0.08,0.0238,others
Sn0.97As0.008Te0.992,0.022,others
La1Cu6,0.021,heavy-Fermion
Ir0.3Ru0.2Rh0.5,0.02,others
Sn0.97As0.009Te0.991,0.0195,others
Ag0.875Ga0.125,0.019,others
Ag0.885Sb0.115,0.019,others
Ru0.957Fe0.043,0.018,others
Au0.93In0.07,0.0164,others
Mg0.4Cd0.6,0.016,others
Nb0.3Mo0.7,0.016,others
W1,0.0157,others
Ag0.865Sb0.135,0.014,others
Au0.95Al0.05,0.0138,others
Sn0.97As0.025Te0.975,0.0138,others
Sn0.995Te1,0.0138,others
Pb0.07Mg0.93,0.013,others
Ag0.7Zn0.3,0.0125,others
Au0.94In0.06,0.0111,others
Gd0.71Sm1.14Ce0.15Cu1O4,0.01,cuprate
Ag0.81In0.19,0.0074,others
Ag0.9Ga0.1,0.0065,others