Formula,Tc,Materials_family
La1Nd0.87Ce0.13Cu1O3.975,16.8,cuprate
Nb0.87Si0.09N0.13O0.13,16.8,others
Ta0.15Nb2.85Al1,16.8,others
Nd0.9Pr0.1Ba2Cu3O6.65,16.8,cuprate
Sm1.15Gd0.7Ce0.15Cu1O3.97,16.8,cuprate
Sm1.25Gd0.6Ce0.15Cu1O3.97,16.8,cuprate
Sr1Ru0.7Fe1.3As2,16.8,iron-based
Y1.3Th0.7C2.7,16.8,others
Y1.4Th0.6C3,16.8,others
La1.78Sr0.22Cu0.99Zn0.01O4,16.766667,cuprate
Pr1.85Ce0.15Cu1O4.065,16.75,cuprate
V3Si1,16.708333,others
Ba1Mo0.018Fe1.982As2,16.7,iron-based
Zr0.125Nb0.75Sn0.125,16.7,others
Nb0.89Al0.11N0.84O0.16,16.7,others
Y1.5Th0.5C3,16.7,others
Ca3Fe2Al2P2O5,16.6,iron-based
Zr0.027Nb2.973Al1,16.6,others
Zr0.5Nb3Sn0.5,16.6,others
V3Si0.8P0.2,16.6,others
H0.7Pd0.55Cu0.45,16.6,others
Pu1Co0.9Ni0.1Ga5,16.6,heavy-Fermion
Be0.01V3Si0.99,16.6,others
Mg0.05Nb0.95N0.92O0.08,16.533333,others
Ba1Fe1.77Co0.23As2,16.5,iron-based
Ca1.7Na0.3Cu1Br2O2,16.5,cuprate
Ca1Fe0.8Co0.2As1F1,16.5,iron-based
La0.81Dy0.06Sr0.13Fe1As1O1,16.5,iron-based
La1.735Nd0.15Sr0.115Cu1O4,16.5,cuprate
La1.943Sr0.076Cu1O4,16.5,cuprate
Li0.5Ti1N1Cl1,16.5,others
Nb1N0.92,16.5,others
Hf0.081Nb2.919Al1,16.5,others
Nb3Ga0.35Sn0.65,16.5,others
Nb3Sn0.8Sb0.2,16.5,others
Nd1.85Ce0.15Cu0.995Fe0.005O4,16.5,cuprate
Pr0.65Sr0.35Fe1As1O1,16.5,iron-based
V74.65Si23.8,16.5,others
Sm1Ir0.125Fe0.875As1O1,16.5,iron-based
La0.006V2.994Si1,16.48,others
Li1Fe1As1,16.475,iron-based
V1Ga1,16.45,others
Gd1Sr2Ru1Cu2O8,16.45,cuprate
Ba1Pd0.06Fe1.94As2,16.4,iron-based
Nb1C0.28N0.76,16.4,others
Eu2.17Ce0.5Sr1.33Cu2.5Al0.5O9.02,16.4,cuprate
K0.76Fe1.61S1.04Se0.96,16.4,iron-based
Ta0.25Nb0.5Sn0.25,16.4,others
Nb0.75Al0.225Si0.025,16.4,others
Nb1C0.3N0.57,16.4,others
Nb2.7Ti0.3Sn1,16.4,others
Ta1Nb2Sn1,16.4,others
Nb3Ga0.5Sn0.5,16.4,others
Nb3Zn0.5Ga0.5,16.4,others
Nb3Si0.25Sn0.75,16.4,others
Nb3Ga0.51Sn0.49,16.4,others
Sm1.844Ce0.156Cu1O4,16.4,cuprate
V2.979Co0.021Si1,16.4,others
Y1.4Th0.6C2.7,16.4,others
Y2B0.1C2.9,16.4,others
Nb0.87Si0.09N0.87O0.13,16.35,others
Ba1Mo0.012Fe1.988As2,16.3,iron-based
Bi1Pb1Sr1.5La0.5Cu1O6,16.3,cuprate
Nb0.7Ga0.3,16.3,others
K0.46Ti1N1Br1,16.3,others
Na0.5Ti1N1Cl1,16.3,others
Na1Fe0.95Co0.05As1,16.3,iron-based
Nb1C0.2N0.64,16.3,others
Nb3Ga0.65Sn0.35,16.3,others
Nb3Zn0.35Ga0.65,16.3,others
Rb0.22Ti1N1Br1,16.3,others
Rb0.5Ti1N1Cl1,16.3,others
Pt0.25Sr1Fe1.75As2,16.3,iron-based
Y0.65Pr0.35Ba2Cu3O6.85,16.3,cuprate
Y1.4Th0.6C2.8,16.3,others
Y1.4Th0.6C2.9,16.3,others
Nb0.8Ga0.2,16.266667,others
V2.97Mn0.03Si1,16.25,others
Pr0.75Sr0.25Fe1As1O1,16.25,iron-based
Pr1.85Ce0.15Cu1O4.175,16.25,cuprate
Ba1Fe1.78Co0.22As2,16.23,iron-based
V3In0.2Si0.8,16.2,others
La0.02Lu0.98Ni2B2C1,16.2,heavy-Fermion
Nb3Ga0.8Sn0.2,16.2,others
Nb3Zn0.2Ga0.8,16.2,others
Nb3Al0.5Sn0.5,16.2,others
Nb80Fe0.06Ga19.4,16.2,others
Pr0.82La1Ce0.18Cu1O4,16.2,cuprate
V69.43Si21.75,16.2,others
Eu0.46Sr0.54Fe1.78Co0.22As2,16.2,iron-based
Y1Ba1.8La0.2Cu3.97Zn0.03O8,16.2,cuprate
K0.5Ti1N1Cl1,16.15,others
Nb1C1N1,16.125,others
V3Al0.02Si0.98,16.12,others
V3Al0.1Si0.9,16.1,others
La1.76Sr0.24Cu0.97Ru0.03O4,16.1,cuprate
La1Fe0.95Co0.05As1O0.89F0.11,16.1,iron-based
Nb1N12.8,16.1,others
Nb0.75Ti0.25N0.94,16.1,others
Nb3Ga0.9Sn0.1,16.1,others
Nb3Zn0.1Ga0.9,16.1,others
Nb3Al0.9Sn0.1,16.1,others
Nb3Ge0.35Sn0.65,16.1,others
Nd1.84Ce0.16Cu1O3.96,16.1,cuprate
V75Si22.5,16.1,others
Nb3In0.15Sn0.7Sb0.15,16.09,others
Tl0.15Nb3Sn0.7Sb0.15,16.04,others
Ba0.95K0.05Fe1.782Co0.212As2,16,iron-based
Ba1Mn0.03Fe1.97P0.7As1.3,16,iron-based
Bi2Sr2Cu1O6.13,16,cuprate
Bi2Sr2Sm1.64Ce0.36Cu2O10.24,16,cuprate
Ce1Fe1P0.4As0.6O0.95F0.05,16,iron-based
Sr4Mg1Ti1Fe1.7Co0.3As2O6,16,iron-based
La1.5Ba1.3Ca0.2Cu3O6.897,16,cuprate
La1.5Ba1.3Ca0.2Cu3O7.002,16,cuprate
La1.7Nd0.15Ca0.056Ba0.094Cu1O4,16,cuprate
La1.83Nd0.1Ba0.07Cu1O4,16,cuprate
La1.89Na0.11Cu1O4,16,cuprate
La1.912Ca0.0875Cu1O4,16,cuprate
La1.985Sr0.015Cu1O4.024,16,cuprate
La1Nd0.86Ce0.14Cu1O3.978,16,cuprate
Mg1B1.84F0.16,16,others
Ta0.9Nb2.1Sn1,16,others
W0.105Nb2.895Al1,16,others
Nb2.9175Ti0.0825Al1,16,others
Nb3Zn0.5Al0.5,16,others
Nb3Al0.67In0.33,16,others
Nb3In0.2Sn0.6Sb0.2,16,others
Nb3Ga0.4Sn0.6,16,others
Nb0.76Al0.192Ge0.024Sn0.024,16,others
Nd0.85La1Th0.15Cu1O4,16,cuprate
Nd0.95La0.9Th0.15Cu1O4,16,cuprate
Nd1.665Y0.185Ce0.15Cu1O4,16,cuprate
Pr1.8315Y0.0185Ce0.15Cu1O4,16,cuprate
Pr1.87Ce0.13Cu1O3.99,16,cuprate
Sm1Ir0.15Fe0.85As1O1,16,iron-based
Sm1Mn0.06Fe0.94As1O0.88F0.12,16,iron-based
Sr0.2La1.8Cu0.95Co0.05O4,16,cuprate
Sr1.2Ba0.8Y1Cu2.8Al0.2O7.19,16,cuprate
Sr1.7K0.3Cu1C1O5,16,cuprate
Pt0.16Sr1Fe1.84As2,16,iron-based
Tl1Ba0.4Ca0.6La1Cu1O5,16,cuprate
Tl2Ba2Cu1O6.08,16,cuprate
Mo0.03V2.97Si1,16,others
Y1.2Th0.8C2.7,16,others
Y1Sr1.55Ba0.45Cu2.5B0.5O7,16,cuprate
Y1Sr2Cu2.8V0.2O6.5,16,cuprate
Sm1Fe0.9Co0.1As1O1,15.966667,iron-based
V75.15Si23.27,15.94,others
La0.06V2.94Si1,15.92,others
Ba0.76Na0.24Fe2As2,15.9,iron-based
Ba1Rh0.078Fe1.922As2,15.9,iron-based
La1.8Nd0.2Cu1O4.025,15.9,cuprate
Nb2.7V0.3Sn1,15.9,others
Pr0.8Sr0.2Fe0.85Co0.15As1O1,15.9,iron-based
Sm1Ru0.36Fe0.64As1O0.85F0.15,15.9,iron-based
Pr1.85Ce0.15Cu0.998Ni0.002O4.065,15.89,cuprate
Lu1Ni2B2C1,15.880667,heavy-Fermion
Ba1Fe1.892Ni0.108As2,15.88,iron-based
Ba1Fe1.74Co0.22Zn0.04As2,15.82,iron-based
Ba1Fe1.902Co0.098As2,15.8,iron-based
Pt3.53Ca10Fe9.47As18,15.8,iron-based
Gd0.12Pr1.73Ce0.15Cu1O4,15.8,cuprate
Mo0.25Tc0.75,15.8,others
Na1Fe0.9825Co0.0175As1,15.8,iron-based
Nb0.03V2.97Si1,15.8,others
Nb3Sn0.6Sb0.4,15.8,others
Nb3Sn0.7Sb0.3,15.8,others
Nd1Rh0.1Fe0.9As1O1,15.8,iron-based
V0.737Si0.263,15.8,others
Pt0.2Sr1Fe1.8As2,15.8,iron-based
Y0.3Pr0.7Sr2Cu2.85Re0.15O7,15.8,cuprate
Y0.9Ca0.1Ba2Cu2.8Zn0.2O6.74,15.8,cuprate
Y1.2Th0.8C2.9,15.8,others
Nb3Al0.3Sn0.7,15.775,others
La1Fe1P0.3As0.7O0.95F0.05,15.75,iron-based
V3Al0.2Si0.8,15.7,others
Ca1Fe1.82Co0.18As2,15.7,iron-based
La1.8Sr0.2Cu0.9777Zn0.0223O4,15.7,cuprate
La1Nd0.91Ce0.09Cu1O3.97,15.7,cuprate
Na1Fe0.977Co0.023As1,15.7,iron-based
Sr1Fe1.75Co0.25As2,15.7,iron-based
Nd1.85Ce0.15Cu0.997Ni0.003O4,15.65,cuprate
Ba1Ru0.58Fe1.42As2,15.6,iron-based
Bi1.5Pb0.5Sr1.7La0.3Cu1O5.993,15.6,cuprate
Nb0.78Ga0.22,15.6,others
La1.78Sr0.22Cu0.97Ru0.03O4,15.6,cuprate
La1.85Sr0.15Cu0.8Mg0.2O4,15.6,cuprate
La1.8Sr0.2Cu0.98Ru0.02O4,15.6,cuprate
La1Fe0.991Zn0.009As1O0.9F0.08,15.6,iron-based
Lu1Co0.018Ni1.991B2C1,15.6,heavy-Fermion
Nb1C0.5N0.36,15.6,others
Nb2.55Ti0.45Sn1,15.6,others
Nb2.706V0.294Al1,15.6,others
H0.8Pd0.7Ag0.3,15.6,others
Pr0.8La1Ce0.2Cu1O4,15.6,cuprate
Sc0.5Lu0.5Ni2B2C1,15.6,others
Sm1Fe1P0.2As0.8O0.88F0.12,15.6,iron-based
Tb0.56Ca0.44Fe1As1O1,15.6,iron-based
Be0.24V3Si0.76,15.6,others
Y0.9Lu0.1Ni2B2C1,15.56,others
Ba1Ru0.48Fe1.52As2,15.55,iron-based
Ba1Fe1.868Co0.094Cu0.038As2,15.55,iron-based
Bi1Ba0.445K0.555O3,15.5,others
Ba1Fe1.916Co0.084As2,15.5,iron-based
Ca1Fe1.94Co0.06As2,15.5,iron-based
La1.795Sr0.205Cu0.98Ru0.02O4,15.5,cuprate
V2.79Mn0.21Si1,15.5,others
Mo1Ni1P1,15.5,others
Mo1Ru1P1,15.5,others
Nd1.85Ce0.15Cu0.999Co0.001O4,15.5,cuprate
Pr0.85Sr0.15Fe1As1O1,15.5,iron-based
Pr1.665Gd0.185Ce0.15Cu1O4,15.5,cuprate
Pr2Ba4Cu7O14.74,15.5,cuprate
Pu1Rh0.5Co0.5Ga5,15.5,heavy-Fermion
Y0.4Pr0.6Ba1.2Sr0.8Cu3O7,15.5,cuprate
Y1Th1C2.7,15.5,others
Y1Mn0.02Ni1.98B2C1,15.48,others
Ba1Fe1.91Co0.09As2,15.453333,iron-based
Nd1.85Ce0.15Cu0.998Co0.002O4,15.45,cuprate
Pr1.83Ce0.17Cu1O4,15.425,cuprate
Nb2.7V0.3Al1,15.4,others
Ca1Fe0.9Ni0.1As1F1,15.4,iron-based
V0.69Ga0.31,15.4,others
Na1Fe0.975Ni0.025As1,15.4,iron-based
Nb0.75Al0.15Si0.1,15.4,others
Nb0.75Al0.2Si0.05,15.4,others
Ta0.261Nb2.739Al1,15.4,others
Nb3Al0.4Sn0.6,15.4,others
Nd1.5Ba1.5Cu3O7.12,15.4,cuprate
Pr0.65Sr0.35Fe1P0.05As0.95O1,15.4,iron-based
Y1.4Th0.6C2.4,15.4,others
La1Mn0.00075Fe0.99925As1O0.89F0.11,15.35,iron-based
Nb3Ga0.95Ge0.05,15.35,others
Ce0.12V2.88Si1,15.32,others
D0.47Pd0.84Ag0.16,15.3,others
V0.75Ga0.25,15.3,others
La1.75Sr0.25Cu0.97Ru0.03O4,15.3,cuprate
La0.05Lu0.95Ni2B2C1,15.3,heavy-Fermion
Nd1.85Ce0.15Cu0.99Zn0.01O4,15.3,cuprate
La1.875Ba0.05Sr0.075Cu1O4,15.25,cuprate
Ca1Fe1.85Co0.15As2,15.2,iron-based
K0.22Zr1N1Cl1,15.2,others
K0.4Zr1N1Cl1,15.2,others
Li0.06Zr1N1Cl1,15.2,others
Rb2Na1H2.4C60N0.8,15.2,others
Na0.23Ti1N1Br1,15.2,others
Nb0.92Ti0.08N0.93,15.2,others
W0.15Nb2.85Al1,15.2,others
Nb0.775Al0.113Ge0.056Sn0.056,15.2,others
Tl1Sr2Ca1Cu2O6.862,15.2,cuprate
Y0.16Lu0.84Ni2B2C1,15.2,heavy-Fermion
Y0.92Lu0.08Ni2B2C1,15.2,others
Ca1.89Na0.11Cu1Cl2O2,15.14,cuprate
V0.752Ga0.248,15.1,others
Ho0.15Lu0.85Ni2B2C1,15.1,heavy-Fermion
La0.06Lu0.94Ni2B2C1,15.1,heavy-Fermion
Nb0.5Ti0.5N0.95,15.1,others
Sc0.9Y0.1Ni2B2C1,15.1,others
Y0.8Th1.2C2.7,15.1,others
Pr1Fe0.925Co0.075As1O1,15.033333,iron-based
Mo6B3Sn1S8,15,others
Ba0.49K0.51Fe1.79Co0.21As2,15,iron-based
Ba0.5K0.5Mn0.08Fe1.92As2,15,iron-based
Ba0.805K0.195Fe2As2,15,iron-based
Ba1.34Eu2Ce0.66Cu3O8.96,15,cuprate
Ba1Ru0.56Fe1.44As2,15,iron-based
Bi1Pb1Sr0.2Pr0.2Cu1O6,15,cuprate
Ca1.702Cu0.851Cl1.851Na0.149O2.404,15,cuprate
Ca1.875Na0.125Cu1Br1Cl1O2,15,cuprate
Ca1.9Cu1Cl2O2,15,cuprate
Ca1Fe1.94Ni0.06As2,15,iron-based
Ce1Fe1P0.45As0.55O0.95F0.05,15,iron-based
Eu0.6Pr0.4Ba2Cu3O6.97,15,cuprate
Eu0.85La1Ce0.15Cu1O4,15,cuprate
Eu1.25La0.6Ce0.15Cu1O4,15,cuprate
Sc1Sr2Fe1P1O3,15,iron-based
Fe1Se0.5Te0.5,15,iron-based
Fe1Se0.43Te0.57,15,iron-based
Fe1Se0.35Te0.65,15,iron-based
Ca5Ti1.5Fe2Al1.5As2O9,15,iron-based
K0.46Zr1N1Cl1,15,others
Ba0.25K2.75C60,15,others
La1.735Nd0.14Sr0.125Cu1O4,15,cuprate
La1.75Sr0.25Cu1O3.93,15,cuprate
La1.7Nd0.2Ba0.1Cu1O4,15,cuprate
La1.84Sr0.16Cu0.975Ni0.025O4,15,cuprate
La1.85Sr0.15Cu0.925Zn0.025O4,15,cuprate
La1.85Sr0.15Cu0.9825Zn0.0175O4,15,cuprate
La1.85Sr0.15Cu0.985Al0.015O4,15,cuprate
La1.8Ca1.032Sr0.168Cu2O6.08,15,cuprate
La1.92Ca0.08Cu1O4,15,cuprate
La1.9Gd0.1Ba2Ca0.2Cu4.2O9.839,15,cuprate
Li0.05Zr1N1Cl1,15,others
Li0.14Zr1N1Cl1,15,others
Li0.55Zr1N1Cl1,15,others
Li0.65Zr1N1Cl1,15,others
Mg0.16Zr1N1Cl1,15,others
Na0.59Zr1N1Cl1,15,others
Na0.5Zr1N1Cl1,15,others
Na4H4C60,15,others
Nb2.55V0.45Sn1,15,others
Nb2.88Ti0.12Al1,15,others
Nb0.8Fe0.01Ga0.19,15,others
Nd0.85La1Ce0.15Cu1O4,15,cuprate
Nd0.8Sr0.2Ni1O2,15,others
Nd1.11Gd0.74Ce0.15Cu1O4,15,cuprate
Pr1.7945Y0.0555Ce0.15Cu1O4,15,cuprate
Sm1.05Gd0.8Ce0.15Cu1O3.97,15,cuprate
Sm1.7575Gd0.0925Ce0.15Cu1O4,15,cuprate
Sm1.80375Y0.04625Ce0.15Cu1O4,15,cuprate
Y0.3Lu0.7Ni2B2C1,15,heavy-Fermion
Y0.6Pr0.4Ba2Cu3O6.53,15,cuprate
Y1Sr0.5Ba1.5Cu2.5B0.5O7,15,cuprate
Yb0.45Pr0.55Ba1.7Sr0.3Cu3O6.91,15,cuprate
Zr1Zn0.04N1Cl1,15,others
Pt3.72Ca10Fe9.28As18,14.9,iron-based
V0.747Ga0.253,14.9,others
La0.8Rh4P12,14.9,heavy-Fermion
La1.62Nd0.2Ba0.18Cu1O4,14.9,cuprate
Y0.5Lu0.5Ni2B2C1,14.9,others
Nb0.8Cr0.005Ga0.195,14.9,others
Pr1Fe0.9Co0.1As1O1,14.9,iron-based
Y0.6Pr0.4Ba2Cu3O6.5,14.9,cuprate
Y0.75Lu0.25Ni2B2C1,14.9,others
La1.9Sr0.1Cu0.9925Zn0.0075O4,14.865,cuprate
Y2C3,14.85625,others
Dy1Ba1Sr1Cu3O6.6,14.85,cuprate
Ba1Fe1.936Ni0.064As2,14.833333,iron-based
Bi1Ba0.46K0.56O2.965,14.8,others
La0.18Ba0.82Fe2As2,14.8,iron-based
Ca1Fe1.874Co0.126As2,14.8,iron-based
Tm0.28Pt3Ca9.72Fe10As18,14.8,iron-based
Fe1Se0.42Te0.58,14.8,iron-based
La0.5Lu0.5Ni2B2C1,14.8,others
La1.83Sr0.17Cu0.97Ni0.03O4,14.8,cuprate
Zr0.073Nb2.927Al1,14.8,others
Pb0.98Mo6Cu0.036S8,14.8,others
Sc0.8Y0.2Ni2B2C1,14.8,others
Y0.84Lu0.16Ni2B2C1,14.8,others
Y1.8W0.2C3.1,14.8,others
La1.85Sr0.15Cu0.985Co0.015O4,14.75,cuprate
V3Si0.7P0.3,14.75,others
Nb0.256Ti0.744N0.88,14.72,others
Pb0.2Bi0.8Ba0.6K0.4O3,14.7,others
Mo1C0.75,14.7,others
La1.89Sr0.11Cu0.995Fe0.005O4,14.7,cuprate
Mo0.4Tc0.6,14.7,others
Na1C60N1,14.7,others
Na3.5C60N0.5,14.7,others
Na3C60N1,14.7,others
Nb1N0.9O0.02,14.7,others
Nd1Rh0.15Fe0.85As1O1,14.7,iron-based
Pr1Fe0.9Co0.1P0.1As0.9O1,14.7,iron-based
Sm1.8Ce0.2Cu1O4,14.7,cuprate
Bi0.025V3Ga0.975,14.7,others
Y1.6Th0.4C2.7,14.7,others
Y1Ni1.95Cu0.05B2C1,14.7,others
Y0.2Lu0.8Ni2B2C1,14.68,heavy-Fermion
Pb0.3Bi0.7Ba0.7K0.3O3,14.6,others
Ba1Fe1.784Co0.216As2,14.6,iron-based
V0.764Ga0.236,14.6,others
Pb0.92Mo6S7.5,14.6,others
Zr0.0225Nb0.7275Al0.25,14.6,others
Zr0.09Nb2.91Al1,14.6,others
Nb3Al0.8Sn0.2,14.6,others
Nb3Ga0.6Sn0.4,14.6,others
Nb3Al0.19Sn0.81,14.6,others
Pr0.8Sr0.2Fe1As1O1,14.6,iron-based
Pr1Fe1As1O0.918F0.082,14.6,iron-based
Y0.6Th1.4C2.5,14.6,others
Y0.6Th1.4C2.9,14.6,others
Ti0.15V2.85Si1,14.55,others
Pb1Mo5.1S4,14.51,others
Ba1Ru0.68Fe1.32As2,14.5,iron-based
Y0.9W0.1C1.55,14.5,others
La1.897Ba0.103Cu1O4,14.5,cuprate
Na0.66Zr1N1Cl1,14.5,others
Ta0.36Nb2.64Al1,14.5,others
Nd1.85Ce0.15Cu0.987Zn0.013O4,14.5,cuprate
Pr1.48Gd0.37Ce0.15Cu1O4,14.5,cuprate
Pr1.7575Y0.0925Ce0.15Cu1O4,14.5,cuprate
Sc0.7Y0.3Ni2B2C1,14.5,others
V0.794Si0.206,14.5,others
Th1Pd2B2C1,14.5,heavy-Fermion
Y1.8Ti0.2C3.1,14.5,others
Y1.8W0.2C2.9,14.5,others
Nb2.85Mo0.15Al1,14.45,others
Y0.95Tb0.05Ni2B2C1,14.42,others
Pr0.045Bi0.955Ba0.6K0.4O3,14.4,others
Ca0.2Ba1.55La1.25Cu3O6.99,14.4,cuprate
Ca0.4Ba1.35La1.25Cu3O6.92,14.4,cuprate
Mn0.02Fe0.98Se0.5Te0.5,14.4,others
Fe1Se0.4Te0.4,14.4,others
V3Si0.9Ge0.1,14.4,others
K0.6Zr1N1Cl1,14.4,others
Li1Ti1.91Cu0.09O4,14.4,others
Pb1Mo5.1S6,14.4,others
Nb1N1.07,14.4,others
Hf0.15Nb2.85Al1,14.4,others
Nb3Sn0.5Sb0.5,14.4,others
Nb0.763Al0.109Ge0.023Sn0.105,14.4,others
Sr1Fe1.766Co0.234As2,14.4,iron-based
Y0.45Pr0.55Ba2Cu3O6.953,14.4,cuprate
Y0.6Th1.4C2.7,14.4,others
V0.78Si0.22,14.38,others
Fe1Se0.3Te0.7,14.333333,iron-based
Ca0.3Nd0.7Ba1La1Cu3O7.24,14.3,cuprate
Fe1.03Se0.5Te0.5,14.3,others
Gd0.2Pb1Mo6S8,14.3,others
Gd0.5Nd1.35Ce0.15Cu1O4,14.3,cuprate
La1.9Ba0.1Cu0.99Ga0.01O4,14.3,cuprate
La1Fe1As1O0.82F0.18,14.3,iron-based
Na0.75Zr1N1Cl1,14.3,others
Nb3Ge0.19Sn0.81,14.3,others
Eu0.3Gd0.2Pb0.7Mo6S8,14.3,others
Sm1Fe0.875Co0.125As1O1,14.3,iron-based
Y1Ni1.985Cu0.015B2C1,14.3,others
Y1Co0.02Ni1.98B2C1,14.3,others
Mo5Al0.5Sn1S6,14.2,others
Bi2Sr1.3Nd0.7Cu1O6.417,14.2,cuprate
Hf0.05Mo0.95C0.75,14.2,others
La0.5Th0.5C1.45,14.2,others
Gd0.31Sm1.54Ce0.15Cu1O4,14.2,cuprate
Li0.17Zr1N1Cl1,14.2,others
Mo3Sn0.6S4,14.2,others
Nb0.625V0.125Sn0.25,14.2,others
Nb2.5V0.5Sn1,14.2,others
Pr1Fe0.9Co0.1P0.05As0.95O1,14.2,iron-based
Y1.8Ti0.2C2.9,14.2,others
Y1Ba2Cu2.79Zn0.21O6.97,14.2,cuprate
Ba1Fe1.82Ni0.18As2,14.15,iron-based
Nb2.7Cr0.3Al1,14.1,others
Ba1Fe1.782Co0.218As2,14.1,iron-based
Ca1Fe1.75Co0.25As2,14.1,iron-based
Fe1.04Se0.33Te0.67,14.1,iron-based
Fe1.05Se0.15Te0.85,14.1,iron-based
Fe1Se0.4Te0.6,14.1,iron-based
V0.7Ga0.3,14.1,others
Y0.2La0.8Mn0.02Fe0.98As1O0.89F0.11,14.1,iron-based
La1.73Sr0.27Cu0.97Ru0.03O4,14.1,cuprate
La1.805Sr0.195Cu0.98Ru0.02O4,14.1,cuprate
La1.83Ca1.006Sr0.164Cu2O6.08,14.1,cuprate
La1Fe0.995Zn0.005As1O0.85,14.1,iron-based
Nb0.8Ni0.01Ga0.19,14.1,others
Ta1.2Nb1.8Sn1,14.1,others
Nb3Al0.39Sn0.61,14.1,others
Nd1Ru0.5Fe0.5As1O0.89F0.11,14.1,others
Y0.95Pr0.05Ni2B2C1,14.05,others
Mo6Sn0.875S8,14.048,others
Al1Sr2Ca1.4Y0.6Cu3O9.1,14,cuprate
Ba0.805K0.195Fe1.738Co0.262As2,14,iron-based
Bi1Pb1Sr0.3Pr0.3Cu1O6,14,cuprate
Bi2Sr2Cu1O6.14,14,cuprate
Bi2Sr2Nd1.64Ce0.36Cu2O10.23,14,cuprate
Nd0.15Ca0.85Fe1As2,14,iron-based
Ca1La1Ba1Cu2.88Zn0.12O7,14,cuprate
Eu1Ba2Cu2.8Ga0.2O6.63,14,cuprate
Fe1.03Se0.4Te0.6,14,iron-based
Fe1.04Se0.4Te0.6,14,iron-based
Fe1.06Se0.5Te0.5,14,others
Fe1.11Se0.4Te0.6,14,iron-based
Fe1Se0.39Te0.61,14,iron-based
Fe1Se0.33Te0.67,14,iron-based
H0.1La1.89Sr0.11Cu0.995Fe0.005O4,14,cuprate
La0.4Pr0.4Ba1Ca1Cu3O7,14,cuprate
La0.65Ca0.05Pr0.3Ba1.5Sr0.5Cu3O6.896,14,cuprate
La1.76Ba0.24Cu1O4,14,cuprate
La1Ba1Cu2.82Co0.18O7,14,cuprate
La1Rh0.15Fe0.85As1O1,14,iron-based
La1Fe0.89Co0.11As1O1,14,iron-based
La1Rh0.1Fe0.9As1O1,14,iron-based
Li0.99Fe1.01As1,14,iron-based
Lu1Co0.06Ni1.97B2C1,14,heavy-Fermion
Mo0.45Tc0.55,14,others
Pb1Mo6S7,14,others
Na0.16Ti1N1Cl1,14,others
Na1Fe0.93Co0.07As1,14,iron-based
Nb2.55V0.45Al1,14,others
Be0.3Nb3Al0.7,14,others
Nd1.85Ce0.15Cu0.985Zn0.015O4,14,cuprate
Nd1Ba2Cu3O6.6,14,cuprate
Ru1Sr1.98La0.02Eu1Cu2O8,14,cuprate
Sm1.7575Y0.0925Ce0.15Cu1O4,14,cuprate
Sm1Fe1As1O0.915F0.085,14,iron-based
Tl1Ba0.6Ca0.4La1Cu1O5,14,cuprate
V0.73Al0.02Si0.25,14,others
Mo0.036V2.964Si1,14,others
Y0.25Pr0.75Sr2Cu2.8Re0.2O7,14,cuprate
Y0.3Pr0.7Ba1Sr1Cu3O6.95,14,cuprate
Y1Pd0.2Ni1.8B2C1,14,others
Zr1Zn0.035N1Br1,14,others
La1.85Sr0.15Cu0.97Ni0.03O4,13.975,cuprate
Ba1Fe1.85Ni0.15As2,13.933333,iron-based
V3Al0.1Ga0.9,13.9,others
V3Al0.3Ga0.7,13.9,others
Ba1Fe2P1.12As0.88,13.9,iron-based
Eu0.6Sr0.4Fe1.715Co0.285As2,13.9,iron-based
Fe1.03Se0.28Te0.72,13.9,iron-based
V0.745Ga0.255,13.9,others
V3In1,13.9,others
La1.82Ba0.18Cu0.99Zn0.01O4,13.9,cuprate
La1.885Ba0.115Cu1O4,13.9,cuprate
Mo0.95V0.05C1,13.9,others
Re0.1Mo0.9C1,13.9,others
Na1Fe0.9875Co0.0125As1,13.9,iron-based
Nb3Si0.27Sn0.73,13.9,others
Nb0.763Al0.143Ge0.023Sn0.071,13.9,others
Sr1Fe1.792Co0.208As2,13.9,iron-based
Y2Ba4Cu7O14.19,13.9,cuprate
Y0.9Mo0.1C1.45,13.8,others
Fe1Se0.328Te0.492,13.8,others
V0.753Ga0.247,13.8,others
H0.27La1.89Sr0.11Cu0.995Fe0.005O4,13.8,cuprate
Y0.75Ho0.25Ni2B2C1,13.8,others
La1.936Ce0.064Cu1O4,13.8,cuprate
Li0.16Zr1N1Cl1,13.8,others
Zr0.15Nb0.85N0.93,13.8,others
Nb0.96Ti0.04N0.9,13.8,others
Nb2.775Mo0.225Al1,13.8,others
Y0.95Ce0.05Ni2B2C1,13.8,others
Y1.8Mo0.2C2.9,13.8,others
Y1Ni1.9Cu0.1B2C1,13.75,others
Bi1.8Pb0.2Sr1.6La0.4Cu1O6.182,13.7,cuprate
Pt4.8Ca10Fe9.2As18,13.7,iron-based
Fe1.12Se0.3Te0.7,13.7,iron-based
Fe1Se0.246Te0.574,13.7,iron-based
La1.751Ba0.249Cu1O4,13.7,cuprate
La1.85Sr0.15Cu0.985Ga0.015O4,13.7,cuprate
La1.8Sr0.2Cu0.9753Zn0.0247O4,13.7,cuprate
Mo0.18Tc0.82,13.7,others
Mo0.9Ru0.1C1,13.7,others
Zr0.15Nb0.85N1,13.7,others
Hf0.08Nb0.92N0.93,13.7,others
Nb0.8Co0.01Ga0.19,13.7,others
Sr1.8Ca0.2V1Fe1As1O3,13.7,iron-based
Y1Pt0.1Ni1.9B2C1,13.7,others
Pb0.9Mo6Cu0.18S8,13.65,others
W0.25Mo6Sn0.875S8,13.635,others
Pt3.617Ca10Fe9.383As18,13.6,iron-based
Fe1.02Se0.5Te0.5,13.6,others
Fe1.02Se0.2Te0.8,13.6,iron-based
V0.735Ga0.265,13.6,others
V3Ga0.8Ge0.2,13.6,others
Gd0.32Pr1.53Ce0.15Cu1O4,13.6,cuprate
La1.85Sr0.15Cu0.978Zn0.022O4,13.6,cuprate
La1Ru0.5Fe0.5As1O0.89F0.11,13.6,others
La0.08Lu0.92Ni2B2C1,13.6,heavy-Fermion
La0.07Lu0.93Ni2B2C1,13.6,heavy-Fermion
Nb0.8Cr0.01Ga0.19,13.6,others
Zr0.141Nb2.859Al1,13.6,others
Nb3Al0.6Sn0.4,13.6,others
Au0.16H0.9Pd0.84,13.6,others
Sr0.8K0.2Fe2As2,13.6,iron-based
Ba0.5K0.5Fe1.7Co0.3As2,13.56,iron-based
Nb0.67Al0.33,13.5,others
Ba1Mn0.018Fe1.832Co0.15As2,13.5,iron-based
La0.08Ca0.92Pd4.2Fe8.6As18,13.5,iron-based
Ce1H1Fe0.78Co0.22As1,13.5,iron-based
Fe0.95Zn0.05Se0.3Te0.7,13.5,iron-based
Fe1.03Se0.2Te0.8,13.5,iron-based
Fe1Se0.38Te0.62,13.5,iron-based
Gd0.91La0.89Sr0.2Cu1O4,13.5,cuprate
H0.4La1.89Sr0.11Cu0.995Fe0.005O4,13.5,cuprate
K0.77Zr1N1Cl1,13.5,others
La1.5Ba1.4Ca0.1Cu3O6.912,13.5,cuprate
La1.83Sr0.17Cu0.65Ni0.35O4,13.5,cuprate
Mo0.95Ti0.05C1,13.5,others
Nb1N0.84,13.5,others
Nb0.05Mo0.95C1,13.5,others
Nb1Ru3,13.5,others
Nd0.8Sr0.2Fe1As1O1,13.5,iron-based
Nd1.665Tb0.185Ce0.15Cu1O4,13.5,cuprate
Nd1.85Ce0.15Cu0.996Ni0.004O4,13.5,cuprate
Pr1.295Gd0.555Ce0.15Cu1O4,13.5,cuprate
Pu1Fe0.1Co0.9Ga5,13.5,heavy-Fermion
Sr1Fe1.76Co0.24As2,13.5,iron-based
V0.75Al0.025Si0.225,13.5,others
Nb0.186V2.814Ga1,13.5,others
Y0.47Pr0.53Ba2Cu3O6.96,13.5,cuprate
Y0.95Gd0.05Ni2B2C1,13.5,others
V3Ga1,13.496,others
Nb0.71Mo0.29C1,13.45,others
Ba1Fe1.87Co0.09Zn0.04As2,13.42,iron-based
Ce0.15Ba0.85Fe2As2,13.4,iron-based
Li0.28Zr1N1Cl1,13.4,others
Li1Fe0.975Co0.025As1,13.4,iron-based
Mo0.1Tc0.9,13.4,others
Mo5Sn1S6,13.4,others
Mo6S6Br2,13.4,others
Na1Fe0.939Co0.061As1,13.4,iron-based
Sr1Fe1.816Co0.184As2,13.4,iron-based
Ti0.246V2.754Ga1,13.4,others
V2.94Fe0.06Si1,13.4,others
Y1Fe0.02Ni1.98B2C1,13.4,others
Li1Fe0.99Ni0.01As1,13.35,iron-based
V0.75Ga0.224Si0.0257,13.32,others
Ba1Pd0.106Fe1.894As2,13.3,iron-based
Ca1H1Fe0.78Co0.22As1,13.3,iron-based
La0.43Pt3Ca9.57Fe10As18,13.3,iron-based
Fe0.99Co0.01Se0.3Te0.7,13.3,iron-based
Fe1Se0.75Te0.25,13.3,iron-based
Fe1S0.01Se0.45Te0.54,13.3,iron-based
Nb0.81Ga0.19,13.3,others
V0.767Ga0.233,13.3,others
Mo5Ga0.5Sn1S6,13.3,others
Ho0.3Lu0.7Ni2B2C1,13.3,heavy-Fermion
Mo0.9V0.1C1,13.3,others
Nb1N0.93,13.3,others
Nb0.77Al0.069Ge0.023Sn0.138,13.3,others
Nb0.784Al0.022Ge0.065Sn0.129,13.3,others
Sm1Fe0.925Co0.075As1O1,13.3,iron-based
Eu0.042Sr0.958Fe1.76Co0.24As2,13.3,iron-based
V0.75Al0.03Si0.22,13.3,others
V3Ga0.13Si0.87,13.3,others
Gd0.055Lu0.945Ni2B2C1,13.28,heavy-Fermion
Fe1Se0.25Te0.75,13.225,iron-based
Fe1Se0.41Te0.41,13.2,others